 vasp.5.4.4.18Apr17-6-g9f103f2a35 (build Jul 16 2019 12:12:28) complex          
  
 executed on             LinuxIFC date 2020.01.06  13:48:36
 running on   96 total cores
 distrk:  each k-point on   96 cores,    1 groups
 distr:  one band on NCORES_PER_BAND=   8 cores,   12 groups


--------------------------------------------------------------------------------------------------------


 INCAR:
 POTCAR:    PAW_PBE Li_sv 10Sep2004               
 POTCAR:    PAW_PBE Ti_pv 07Sep2000               
 POTCAR:    PAW_PBE O 08Apr2002                   
 POTCAR:    PAW_PBE F 08Apr2002                   
 POTCAR:    PAW_PBE Li_sv 10Sep2004               
   VRHFIN =Li: 1s2s2p                                                           
   LEXCH  = PE                                                                  
   EATOM  =   202.7858 eV,   14.9043 Ry                                         
                                                                                
   TITEL  = PAW_PBE Li_sv 10Sep2004                                             
   LULTRA =        F    use ultrasoft PP ?                                      
   IUNSCR =        0    unscreen: 0-lin 1-nonlin 2-no                           
   RPACOR =    0.000    partial core radius                                     
   POMASS =    7.010; ZVAL   =    3.000    mass and valenz                      
   RCORE  =    1.700    outmost cutoff radius                                   
   RWIGS  =    2.050; RWIGS  =    1.085    wigner-seitz radius (au A)           
   ENMAX  =  499.034; ENMIN  =  374.276 eV                                      
   ICORE  =        2    local potential                                         
   LCOR   =        T    correct aug charges                                     
   LPAW   =        T    paw PP                                                  
   EAUG   =  628.945                                                            
   RMAX   =    1.732    core radius for proj-oper                               
   RAUG   =    1.300    factor for augmentation sphere                          
   RDEP   =    1.728    radius for radial grids                                 
   RDEPT  =    1.329    core radius for aug-charge                              
                                                                                
   Atomic configuration                                                         
    4 entries                                                                   
     n  l   j            E        occ.                                          
     1  0  0.50       -51.8549   2.0000                                         
     2  0  0.50        -2.8742   1.0000                                         
     2  1  0.50        -1.3606   0.0000                                         
     3  2  1.50        -1.3606   0.0000                                         
   Description                                                                  
     l       E           TYP  RCUT    TYP  RCUT                                 
     0    -51.8548813     23  1.400                                             
     0     -2.8742052     23  1.700                                             
     1     -1.3605826     23  1.400                                             
     2     -1.3605826     23  1.400                                             
  local pseudopotential read in
  atomic valenz-charges read in
  non local Contribution for L=           0  read in
    real space projection operators read in
  non local Contribution for L=           0  read in
    real space projection operators read in
  non local Contribution for L=           1  read in
    real space projection operators read in
    PAW grid and wavefunctions read in
 
   number of l-projection  operators is LMAX  =           3
   number of lm-projection operators is LMMAX =           5
 
 POTCAR:    PAW_PBE Ti_pv 07Sep2000               
   VRHFIN =Ti: d3 s1                                                            
   LEXCH  = PE                                                                  
   EATOM  =  1042.5995 eV,   76.6289 Ry                                         
                                                                                
   TITEL  = PAW_PBE Ti_pv 07Sep2000                                             
   LULTRA =        F    use ultrasoft PP ?                                      
   IUNSCR =        1    unscreen: 0-lin 1-nonlin 2-no                           
   RPACOR =    2.200    partial core radius                                     
   POMASS =   47.880; ZVAL   =   10.000    mass and valenz                      
   RCORE  =    2.500    outmost cutoff radius                                   
   RWIGS  =    2.500; RWIGS  =    1.323    wigner-seitz radius (au A)           
   ENMAX  =  222.335; ENMIN  =  166.751 eV                                      
   RCLOC  =    1.701    cutoff for local pot                                    
   LCOR   =        T    correct aug charges                                     
   LPAW   =        T    paw PP                                                  
   EAUG   =  482.848                                                            
   DEXC   =    0.000                                                            
   RMAX   =    2.564    core radius for proj-oper                               
   RAUG   =    1.300    factor for augmentation sphere                          
   RDEP   =    2.538    radius for radial grids                                 
   RDEPT  =    1.952    core radius for aug-charge                              
                                                                                
   Atomic configuration                                                         
    8 entries                                                                   
     n  l   j            E        occ.                                          
     1  0  0.50     -4865.3608   2.0000                                         
     2  0  0.50      -533.1368   2.0000                                         
     2  1  1.50      -440.5031   6.0000                                         
     3  0  0.50       -59.3186   2.0000                                         
     3  1  1.50       -35.7012   6.0000                                         
     3  2  2.50        -1.9157   3.0000                                         
     4  0  0.50        -3.7291   1.0000                                         
     4  3  2.50        -1.3606   0.0000                                         
   Description                                                                  
     l       E           TYP  RCUT    TYP  RCUT                                 
     1    -35.7012140     23  2.300                                             
     1     -1.3605826     23  2.300                                             
     2     -1.9156996     23  2.500                                             
     2     -0.4063033     23  2.500                                             
     0     -3.7290856     23  2.500                                             
     0     20.4087390     23  2.500                                             
  local pseudopotential read in
  partial core-charges read in
  partial kinetic energy density read in
  atomic valenz-charges read in
  non local Contribution for L=           1  read in
    real space projection operators read in
  non local Contribution for L=           1  read in
    real space projection operators read in
  non local Contribution for L=           2  read in
    real space projection operators read in
  non local Contribution for L=           2  read in
    real space projection operators read in
  non local Contribution for L=           0  read in
    real space projection operators read in
  non local Contribution for L=           0  read in
    real space projection operators read in
    PAW grid and wavefunctions read in
 
   number of l-projection  operators is LMAX  =           6
   number of lm-projection operators is LMMAX =          18
 
 POTCAR:    PAW_PBE O 08Apr2002                   
   VRHFIN =O: s2p4                                                              
   LEXCH  = PE                                                                  
   EATOM  =   432.3788 eV,   31.7789 Ry                                         
                                                                                
   TITEL  = PAW_PBE O 08Apr2002                                                 
   LULTRA =        F    use ultrasoft PP ?                                      
   IUNSCR =        1    unscreen: 0-lin 1-nonlin 2-no                           
   RPACOR =    1.200    partial core radius                                     
   POMASS =   16.000; ZVAL   =    6.000    mass and valenz                      
   RCORE  =    1.520    outmost cutoff radius                                   
   RWIGS  =    1.550; RWIGS  =    0.820    wigner-seitz radius (au A)           
   ENMAX  =  400.000; ENMIN  =  300.000 eV                                      
   ICORE  =        2    local potential                                         
   LCOR   =        T    correct aug charges                                     
   LPAW   =        T    paw PP                                                  
   EAUG   =  605.392                                                            
   DEXC   =    0.000                                                            
   RMAX   =    1.553    core radius for proj-oper                               
   RAUG   =    1.300    factor for augmentation sphere                          
   RDEP   =    1.550    radius for radial grids                                 
   RDEPT  =    1.329    core radius for aug-charge                              
                                                                                
   Atomic configuration                                                         
    4 entries                                                                   
     n  l   j            E        occ.                                          
     1  0  0.50      -514.6923   2.0000                                         
     2  0  0.50       -23.9615   2.0000                                         
     2  1  0.50        -9.0305   4.0000                                         
     3  2  1.50        -9.5241   0.0000                                         
   Description                                                                  
     l       E           TYP  RCUT    TYP  RCUT                                 
     0    -23.9615318     23  1.200                                             
     0     -9.5240782     23  1.200                                             
     1     -9.0304911     23  1.520                                             
     1      8.1634956     23  1.520                                             
     2     -9.5240782      7  1.500                                             
  local pseudopotential read in
  partial core-charges read in
  partial kinetic energy density read in
  kinetic energy density of atom read in
  atomic valenz-charges read in
  non local Contribution for L=           0  read in
    real space projection operators read in
  non local Contribution for L=           0  read in
    real space projection operators read in
  non local Contribution for L=           1  read in
    real space projection operators read in
  non local Contribution for L=           1  read in
    real space projection operators read in
    PAW grid and wavefunctions read in
 
   number of l-projection  operators is LMAX  =           4
   number of lm-projection operators is LMMAX =           8
 
 POTCAR:    PAW_PBE F 08Apr2002                   
   VRHFIN =F: s2p5                                                              
   LEXCH  = PE                                                                  
   EATOM  =   659.6475 eV,   48.4827 Ry                                         
                                                                                
   TITEL  = PAW_PBE F 08Apr2002                                                 
   LULTRA =        F    use ultrasoft PP ?                                      
   IUNSCR =        1    unscreen: 0-lin 1-nonlin 2-no                           
   RPACOR =    1.200    partial core radius                                     
   POMASS =   18.998; ZVAL   =    7.000    mass and valenz                      
   RCORE  =    1.520    outmost cutoff radius                                   
   RWIGS  =    1.500; RWIGS  =    0.794    wigner-seitz radius (au A)           
   ENMAX  =  400.000; ENMIN  =  300.000 eV                                      
   ICORE  =        2    local potential                                         
   LCOR   =        T    correct aug charges                                     
   LPAW   =        T    paw PP                                                  
   EAUG   =  613.614                                                            
   RMAX   =    1.555    core radius for proj-oper                               
   RAUG   =    1.300    factor for augmentation sphere                          
   RDEP   =    1.539    radius for radial grids                                 
   RDEPT  =    1.299    core radius for aug-charge                              
                                                                                
   Atomic configuration                                                         
    4 entries                                                                   
     n  l   j            E        occ.                                          
     1  0  0.50      -663.3661   2.0000                                         
     2  0  0.50       -29.8995   2.0000                                         
     2  1  0.50       -11.1114   5.0000                                         
     3  2  1.50       -10.8847   0.0000                                         
   Description                                                                  
     l       E           TYP  RCUT    TYP  RCUT                                 
     0    -29.8995018     23  1.200                                             
     0     -9.5240782     23  1.200                                             
     1    -11.1113914     23  1.520                                             
     1      1.3605826     23  1.520                                             
     2    -10.8846608      7  1.500                                             
  local pseudopotential read in
  partial core-charges read in
  partial kinetic energy density read in
  atomic valenz-charges read in
  non local Contribution for L=           0  read in
    real space projection operators read in
  non local Contribution for L=           0  read in
    real space projection operators read in
  non local Contribution for L=           1  read in
    real space projection operators read in
  non local Contribution for L=           1  read in
    real space projection operators read in
    PAW grid and wavefunctions read in
 
   number of l-projection  operators is LMAX  =           4
   number of lm-projection operators is LMMAX =           8
 
 Optimization of the real space projectors (new method)

 maximal supplied QI-value         = 22.11
 optimisation between [QCUT,QGAM] = [ 11.28, 22.77] = [ 35.61,145.23] Ry 
 Optimized for a Real-space Cutoff    1.31 Angstroem

   l    n(q)    QCUT    max X(q) W(low)/X(q) W(high)/X(q)  e(spline) 
   0      9    11.276    10.506    0.19E-04    0.17E-04    0.32E-07
   0      9    11.276     8.367    0.38E-04    0.40E-04    0.65E-07
   1      8    11.276     8.983    0.55E-04    0.98E-04    0.20E-06
 Optimization of the real space projectors (new method)

 maximal supplied QI-value         = 15.12
 optimisation between [QCUT,QGAM] = [ 11.34, 22.83] = [ 36.00,145.93] Ry 
 Optimized for a Real-space Cutoff    1.56 Angstroem

   l    n(q)    QCUT    max X(q) W(low)/X(q) W(high)/X(q)  e(spline) 
   1     10    11.338     4.216    0.27E-04    0.12E-04    0.66E-07
   1     10    11.338     5.422    0.81E-04    0.24E-04    0.19E-06
   2     10    11.338    72.084    0.64E-04    0.21E-03    0.51E-06
   2     10    11.338    65.965    0.63E-04    0.21E-03    0.50E-06
   0     11    11.338    41.531    0.33E-04    0.54E-04    0.13E-06
   0     11    11.338    16.290    0.26E-04    0.41E-04    0.11E-06
 Optimization of the real space projectors (new method)

 maximal supplied QI-value         = 24.76
 optimisation between [QCUT,QGAM] = [ 11.39, 22.77] = [ 36.31,145.25] Ry 
 Optimized for a Real-space Cutoff    1.20 Angstroem

   l    n(q)    QCUT    max X(q) W(low)/X(q) W(high)/X(q)  e(spline) 
   0      8    11.387    20.381    0.89E-04    0.31E-03    0.27E-06
   0      8    11.387    15.268    0.93E-04    0.32E-03    0.29E-06
   1      8    11.387     5.964    0.53E-04    0.28E-03    0.29E-06
   1      8    11.387     5.382    0.37E-04    0.22E-03    0.26E-06
 Optimization of the real space projectors (new method)

 maximal supplied QI-value         = 24.76
 optimisation between [QCUT,QGAM] = [ 11.39, 22.77] = [ 36.31,145.25] Ry 
 Optimized for a Real-space Cutoff    1.20 Angstroem

   l    n(q)    QCUT    max X(q) W(low)/X(q) W(high)/X(q)  e(spline) 
   0      8    11.387    14.049    0.69E-04    0.23E-03    0.18E-06
   0      8    11.387     8.945    0.88E-04    0.30E-03    0.26E-06
   1      8    11.387     7.086    0.62E-04    0.27E-03    0.27E-06
   1      8    11.387     6.747    0.46E-04    0.23E-03    0.25E-06

 ----------------------------------------------------------------------------- 
|                                                                             |
|  ADVICE TO THIS USER RUNNING 'VASP/VAMP'   (HEAR YOUR MASTER'S VOICE ...):  |
|                                                                             |
|      You enforced a specific xc-type in the INCAR file,                     |
|      a different type was found on the POTCAR file                          |
|          I HOPE YOU KNOW, WHAT YOU ARE  DOING                               |
|                                                                             |
 ----------------------------------------------------------------------------- 

  PAW_PBE Li_sv 10Sep2004               :
 energy of atom  1       EATOM= -202.7858
 kinetic energy error for atom=    0.0143 (will be added to EATOM!!)
  PAW_PBE Ti_pv 07Sep2000               :
 energy of atom  2       EATOM=-1042.5995
 kinetic energy error for atom=    0.0024 (will be added to EATOM!!)
  PAW_PBE O 08Apr2002                   :
 energy of atom  3       EATOM= -432.3788
 kinetic energy error for atom=    0.0224 (will be added to EATOM!!)
  PAW_PBE F 08Apr2002                   :
 energy of atom  4       EATOM= -659.6475
 kinetic energy error for atom=    0.0354 (will be added to EATOM!!)
 
 
 POSCAR: config 51                               
  positions in direct lattice
  velocities in cartesian coordinates
 exchange correlation table for  LEXCH =       14
   RHO(1)=    0.500       N(1)  =     2000
   RHO(2)=  100.500       N(2)  =     4000

 VTST: version 3.2, (02/03/18)

 CHAIN: initializing optimizer
 
 OPT: Using VASP QUASI-newton optimizer
 CHAIN: Read ICHAIN            0
 
 POSCAR: config 51                               
  positions in direct lattice
  velocities in cartesian coordinates
 


--------------------------------------------------------------------------------------------------------


 ion  position               nearest neighbor table
   1  0.876  0.132  0.669- 113 1.94 126 1.97 210 2.11
   2  0.995  0.996  0.995- 118 1.85 103 1.90  68 1.91 171 2.02 130 2.03 212 2.03
   3  1.000  0.994  0.493- 119 1.82  67 1.83 172 1.95 193 1.97 213 2.00 131 2.05
   4  0.006  0.495  0.997-  89 1.84 117 1.86 138 1.93 132 1.97 214 2.02 194 2.03
   5  0.994  0.502  0.507-  66 1.84 104 1.85 223 1.92 215 1.94 173 2.02 137 2.02
   6  0.494  0.994  1.000- 101 1.83 121 1.84 140 1.96 133 1.96 216 2.02 174 2.03
   7  0.500  0.008  0.499- 112 1.77 191 1.90 134 1.92 139 1.92 175 1.93 225 2.01
   8  0.505  0.495  0.996-  90 1.88 120 1.88  70 1.89 192 2.03 135 2.03 217 2.05
   9  0.492  0.499  0.495- 102 1.81  69 1.86 224 1.97 218 1.98 136 2.02 176 2.05
  10  0.006  0.004  0.256-  91 1.83  67 1.86 219 1.94 227 1.97 130 2.01 197 2.06
  11  0.003  0.008  0.757-  68 1.78 113 1.88 177 1.93 228 2.02 198 2.02 131 2.05
  12  0.994  0.492  0.252- 122 1.82 107 1.85 137 1.93 132 1.98 178 2.03 220 2.04
  13  0.993  0.497  0.742-  66 1.81 108 1.82 226 1.96 221 1.97 138 2.02 179 2.04
  14  0.506  0.009  0.250- 114 1.82  92 1.84 133 1.93 139 1.97 195 2.00 231 2.05
  15  0.491  0.003  0.752- 105 1.80 115 1.85 140 1.93 134 1.99 232 2.00 180 2.05
  16  0.493  0.497  0.257-  69 1.82 106 1.84 229 1.96 222 2.00 135 2.02 181 2.04
  17  0.501  0.503  0.758-  70 1.80 116 1.88 182 1.95 196 1.97 230 2.05 136 2.06
  18  0.995  0.257  0.003- 117 1.82 110 1.88 141 1.93 146 2.00 183 2.01 212 2.02
  19  0.998  0.248  0.494-  74 1.89 184 2.02 223 2.03 213 2.03 142 2.03 202 2.04
  20  0.998  0.758  0.006- 118 1.82  71 1.84 203 1.95 185 1.97 148 2.04 214 2.05
  21  0.998  0.759  0.505- 119 1.82  72 1.84 204 1.95 186 1.96 215 2.02 147 2.02
  22  0.495  0.258  0.002- 120 1.80 109 1.84 150 1.96 143 1.98 187 2.05 216 2.07
  23  0.508  0.245  0.498-  93 1.80 112 1.90 144 1.94 149 1.94 224 1.96 199 1.99
  24  0.507  0.756  0.999-  94 1.83 121 1.84 152 1.94 145 1.98 217 2.01 200 2.02
  25  0.507  0.752  0.509-  73 1.79  95 1.83 218 1.95 225 1.96 201 2.01 151 2.07
  26  0.998  0.257  0.259-  74 1.78 122 1.84 209 1.97 188 1.98 219 2.03 141 2.06
  27  0.010  0.242  0.749-  96 1.79 113 1.86 146 1.95 142 1.95 226 2.01 210 2.12
  28  0.007  0.749  0.243-  71 1.82  97 1.84 220 1.93 227 1.99 147 2.05 211 2.06
  29  0.993  0.752  0.743- 111 1.83  72 1.83 228 1.95 221 1.97 189 2.02 148 2.02
  30  0.508  0.242  0.252-  98 1.82 114 1.83 143 1.93 149 1.97 229 2.01 205 2.03
  31  0.505  0.241  0.751- 115 1.83  99 1.86 150 1.93 144 1.97 206 1.99 230 2.02
  32  0.507  0.752  0.252- 100 1.79 151 1.92 231 1.93 145 1.94 222 1.94 207 2.00
  33  0.501  0.741  0.744- 116 1.80  73 1.84 190 1.94 208 1.97 152 2.02 232 2.08
  34  0.256  0.999  0.006-  75 1.84 101 1.86 246 1.93 233 1.96 171 2.02 157 2.04
  35  0.249  0.994  0.506- 128 1.82  76 1.85 172 1.94 191 1.98 234 2.01 156 2.02
  36  0.244  0.508  0.998- 123 1.82  89 1.84 159 1.94 153 1.97 192 2.02 245 2.03
  37  0.254  0.494  0.506-  77 1.86 127 1.88 102 1.88 173 2.02 158 2.04 235 2.05
  38  0.757  0.001  0.995- 103 1.79  81 1.90 236 1.96 249 1.96 154 2.03 174 2.04
  39  0.750  0.008  0.494-  80 1.83 124 1.84 193 1.93 175 1.98 155 2.01 250 2.02
  40  0.742  0.500  0.005-  90 1.80  78 1.86 237 1.96 247 1.97 161 2.04 194 2.05
  41  0.756  0.497  0.505- 104 1.84  79 1.85 248 1.96 238 1.99 176 2.02 160 2.03
  42  0.244  0.003  0.244-  75 1.84  91 1.85 239 1.93 252 1.96 156 2.04 195 2.06
  43  0.258  0.997  0.744-  76 1.83 105 1.84 253 1.93 240 1.97 157 2.02 177 2.02
  44  0.255  0.492  0.252- 129 1.83 106 1.84 158 1.93 153 1.97 178 2.04 241 2.04
  45  0.248  0.506  0.741-  77 1.79 125 1.84 179 1.95 196 1.97 251 2.04 159 2.05
  46  0.744  0.002  0.256-  92 1.85  80 1.86 256 1.95 242 1.96 197 2.00 154 2.01
  47  0.747  0.007  0.756-  81 1.80 126 1.88 180 1.92 198 1.99 257 2.01 155 2.07
  48  0.756  0.498  0.242-  78 1.83 107 1.83 243 1.96 254 1.97 181 2.03 160 2.06
  49  0.757  0.496  0.742- 108 1.82  79 1.83 255 1.96 244 1.98 182 2.03 161 2.04
  50  0.257  0.251  0.006- 109 1.84  82 1.85 245 1.93 233 1.97 168 2.02 183 2.06
  51  0.252  0.257  0.504- 127 1.81  83 1.88 184 1.93 199 1.97 167 2.03 234 2.06
  52  0.252  0.743  0.993- 123 1.81  86 1.84 200 1.94 185 1.96 162 2.03 246 2.04
  53  0.251  0.755  0.493-  85 1.83 128 1.86 201 1.95 186 1.97 235 1.99 163 2.05
  54  0.757  0.252  0.008- 110 1.80  84 1.86 247 1.95 236 1.95 187 2.03 170 2.07
  55  0.744  0.243  0.497- 124 1.84  93 1.85 169 1.94 202 1.96 164 1.99 248 2.01
  56  0.742  0.748  0.994-  94 1.82  88 1.84 237 1.94 249 1.96 203 2.01 165 2.04
  57  0.742  0.751  0.494-  95 1.81  87 1.86 250 1.95 238 1.96 204 2.02 166 2.02
  58  0.251  0.258  0.243- 129 1.82  82 1.83 205 1.97 188 1.98 167 2.03 239 2.04
  59  0.246  0.250  0.743-  83 1.81  96 1.87 251 1.93 240 1.98 206 2.02 168 2.04
  60  0.244  0.748  0.255-  97 1.83  85 1.84 241 1.93 252 1.98 162 2.02 207 2.06
  61  0.249  0.742  0.756- 125 1.81  86 1.84 189 1.94 208 1.98 163 2.03 253 2.05
  62  0.742  0.252  0.242-  84 1.80  98 1.84 254 1.94 242 1.96 209 2.01 169 2.09
  63  0.742  0.242  0.751-  99 1.80 126 1.87 170 1.93 164 2.00 255 2.01 210 2.06
  64  0.746  0.749  0.256-  87 1.82 100 1.90 243 1.94 256 1.95 211 1.98 165 2.03
  65  0.758  0.751  0.756- 111 1.81  88 1.84 257 1.96 244 1.97 190 2.03 166 2.05
  66  0.008  0.495  0.625-  13 1.81   5 1.84
  67  0.995  0.013  0.376-   3 1.83  10 1.86
  68  0.999  0.010  0.872-  11 1.78   2 1.91
  69  0.500  0.491  0.375-  16 1.82   9 1.86
  70  0.494  0.494  0.874-  17 1.80   8 1.89
  71  0.999  0.753  0.125-  28 1.82  20 1.84
  72  0.002  0.755  0.625-  29 1.83  21 1.84
  73  0.501  0.749  0.625-  25 1.79  33 1.84
  74  0.986  0.239  0.373-  26 1.78  19 1.89
  75  0.254  0.003  0.125-  42 1.84  34 1.84
  76  0.254  0.003  0.626-  43 1.83  35 1.85
  77  0.240  0.496  0.626-  45 1.79  37 1.86
  78  0.750  0.485  0.125-  48 1.83  40 1.86
  79  0.746  0.487  0.624-  49 1.83  41 1.85
  80  0.751  0.009  0.376-  39 1.83  46 1.86
  81  0.747  0.010  0.873-  47 1.80  38 1.90
  82  0.242  0.249  0.125-  58 1.83  50 1.85
  83  0.249  0.249  0.626-  59 1.81  51 1.88
  84  0.737  0.266  0.126-  62 1.80  54 1.86
  85  0.254  0.747  0.374-  53 1.83  60 1.84
  86  0.252  0.753  0.875-  61 1.84  52 1.84
  87  0.752  0.743  0.374-  64 1.82  57 1.86
  88  0.749  0.744  0.875-  65 1.84  56 1.84
  89  0.125  0.505  0.994-   4 1.84  36 1.84
  90  0.626  0.508  0.998-  40 1.80   8 1.88
  91  0.125  0.004  0.252-  10 1.83  42 1.85
  92  0.625  0.004  0.250-  14 1.84  46 1.85
  93  0.624  0.252  0.487-  23 1.80  55 1.85
  94  0.625  0.741  0.003-  56 1.82  24 1.83
  95  0.624  0.758  0.496-  57 1.81  25 1.83
  96  0.126  0.239  0.756-  27 1.79  59 1.87
  97  0.125  0.750  0.251-  60 1.83  28 1.84
  98  0.626  0.244  0.265-  30 1.82  62 1.84
  99  0.625  0.241  0.756-  63 1.80  31 1.86
 100  0.623  0.752  0.251-  32 1.79  64 1.90
 101  0.376  0.999  0.993-   6 1.83  34 1.86
 102  0.375  0.502  0.504-   9 1.81  37 1.88
 103  0.873  0.001  0.000-  38 1.79   2 1.90
 104  0.875  0.501  0.500-  41 1.84   5 1.85
 105  0.376  0.986  0.756-  15 1.80  43 1.84
 106  0.374  0.495  0.248-  44 1.84  16 1.84
 107  0.875  0.496  0.252-  48 1.83  12 1.85
 108  0.875  0.498  0.746-  13 1.82  49 1.82
 109  0.376  0.249  0.008-  50 1.84  22 1.84
 110  0.874  0.250  0.010-  54 1.80  18 1.88
 111  0.875  0.754  0.749-  65 1.81  29 1.83
 112  0.504  0.122  0.491-   7 1.77  23 1.90
 113  0.984  0.126  0.733-  27 1.86  11 1.88   1 1.94
 114  0.493  0.125  0.264-  14 1.82  30 1.83
 115  0.491  0.123  0.751-  31 1.83  15 1.85
 116  0.495  0.625  0.753-  33 1.80  17 1.88
 117  0.001  0.375  0.997-  18 1.82   4 1.86
 118  0.002  0.876  0.994-  20 1.82   2 1.85
 119  0.002  0.876  0.492-  21 1.82   3 1.82
 120  0.505  0.374  0.009-  22 1.80   8 1.88
 121  0.506  0.875  0.006-  24 1.84   6 1.84
 122  0.008  0.375  0.254-  12 1.82  26 1.84
 123  0.257  0.625  0.002-  52 1.81  36 1.82
 124  0.748  0.125  0.514-  39 1.84  55 1.84
 125  0.257  0.625  0.750-  61 1.81  45 1.84
 126  0.764  0.125  0.730-  63 1.87  47 1.88   1 1.97
 127  0.249  0.373  0.494-  51 1.81  37 1.88
 128  0.247  0.876  0.499-  35 1.82  53 1.86
 129  0.241  0.374  0.256-  58 1.82  44 1.83
 130  1.000  0.995  0.126-  10 2.01   2 2.03
 131  0.004  0.989  0.626-   3 2.05  11 2.05
 132  0.001  0.502  0.124-   4 1.97  12 1.98
 133  0.495  0.011  0.126-  14 1.93   6 1.96
 134  0.498  0.999  0.623-   7 1.92  15 1.99
 135  0.502  0.510  0.127-  16 2.02   8 2.03
 136  0.507  0.503  0.625-   9 2.02  17 2.06
 137  0.003  0.508  0.376-  12 1.93   5 2.02
 138  0.996  0.504  0.872-   4 1.93  13 2.02
 139  0.502  0.986  0.376-   7 1.92  14 1.97
 140  0.514  0.996  0.874-  15 1.93   6 1.96
 141  0.012  0.253  0.127-  18 1.93  26 2.06
 142  0.008  0.264  0.625-  27 1.95  19 2.03
 143  0.514  0.236  0.127-  30 1.93  22 1.98
 144  0.506  0.244  0.623-  23 1.94  31 1.97
 145  0.496  0.743  0.127-  32 1.94  24 1.98
 146  0.989  0.242  0.874-  27 1.95  18 2.00
 147  0.994  0.745  0.375-  21 2.02  28 2.05
 148  0.002  0.746  0.874-  29 2.02  20 2.04
 149  0.486  0.265  0.375-  23 1.94  30 1.97
 150  0.494  0.255  0.874-  31 1.93  22 1.96
 151  0.493  0.758  0.375-  32 1.92  25 2.07
 152  0.499  0.756  0.874-  24 1.94  33 2.02
 153  0.245  0.495  0.125-  44 1.97  36 1.97
 154  0.748  0.993  0.126-  46 2.01  38 2.03
 155  0.746  0.988  0.623-  39 2.01  47 2.07
 156  0.252  0.002  0.375-  35 2.02  42 2.04
 157  0.243  0.995  0.874-  43 2.02  34 2.04
 158  0.248  0.511  0.375-  44 1.93  37 2.04
 159  0.260  0.497  0.873-  36 1.94  45 2.05
 160  0.746  0.512  0.375-  41 2.03  48 2.06
 161  0.753  0.511  0.874-  49 2.04  40 2.04
 162  0.252  0.755  0.125-  60 2.02  52 2.03
 163  0.250  0.752  0.625-  61 2.03  53 2.05
 164  0.738  0.267  0.624-  55 1.99  63 2.00
 165  0.752  0.758  0.125-  64 2.03  56 2.04
 166  0.747  0.757  0.624-  57 2.02  65 2.05
 167  0.261  0.244  0.374-  51 2.03  58 2.03
 168  0.257  0.251  0.875-  50 2.02  59 2.04
 169  0.766  0.236  0.374-  55 1.94  62 2.09
 170  0.760  0.235  0.875-  63 1.93  54 2.07
 171  0.126  0.003  0.001-   2 2.02  34 2.02
 172  0.125  0.011  0.499-  35 1.94   3 1.95
 173  0.124  0.506  0.493-   5 2.02  37 2.02
 174  0.625  0.003  0.006-   6 2.03  38 2.04
 175  0.624  0.989  0.501-   7 1.93  39 1.98
 176  0.625  0.497  0.498-  41 2.02   9 2.05
 177  0.127  0.013  0.748-  11 1.93  43 2.02
 178  0.125  0.510  0.249-  12 2.03  44 2.04
 179  0.124  0.501  0.763-  45 1.95  13 2.04
 180  0.623  0.007  0.741-  47 1.92  15 2.05
 181  0.625  0.502  0.250-  48 2.03  16 2.04
 182  0.627  0.499  0.755-  17 1.95  49 2.03
 183  0.125  0.248  0.990-  18 2.01  50 2.06
 184  0.129  0.239  0.492-  51 1.93  19 2.02
 185  0.125  0.745  0.000-  52 1.96  20 1.97
 186  0.124  0.746  0.496-  21 1.96  53 1.97
 187  0.627  0.247  0.988-  54 2.03  22 2.05
 188  0.125  0.236  0.260-  58 1.98  26 1.98
 189  0.124  0.745  0.751-  61 1.94  29 2.02
 190  0.626  0.747  0.750-  33 1.94  65 2.03
 191  0.377  0.000  0.496-   7 1.90  35 1.98
 192  0.374  0.495  0.007-  36 2.02   8 2.03
 193  0.874  0.999  0.511-  39 1.93   3 1.97
 194  0.875  0.497  0.998-   4 2.03  40 2.05
 195  0.377  0.994  0.255-  14 2.00  42 2.06
 196  0.375  0.489  0.741-  17 1.97  45 1.97
 197  0.873  0.998  0.247-  46 2.00  10 2.06
 198  0.874  0.992  0.739-  47 1.99  11 2.02
 199  0.380  0.247  0.505-  51 1.97  23 1.99
 200  0.377  0.758  0.002-  52 1.94  24 2.02
 201  0.377  0.748  0.502-  53 1.95  25 2.01
 202  0.869  0.252  0.518-  55 1.96  19 2.04
 203  0.872  0.755  0.999-  20 1.95  56 2.01
 204  0.872  0.748  0.504-  21 1.95  57 2.02
 205  0.378  0.258  0.240-  58 1.97  30 2.03
 206  0.377  0.258  0.747-  31 1.99  59 2.02
 207  0.377  0.751  0.247-  32 2.00  60 2.06
 208  0.375  0.763  0.749-  33 1.97  61 1.98
 209  0.872  0.257  0.237-  26 1.97  62 2.01
 210  0.874  0.253  0.732-  63 2.06   1 2.11  27 2.12
 211  0.873  0.751  0.248-  64 1.98  28 2.06
 212  0.002  0.127  0.007-  18 2.02   2 2.03
 213  0.988  0.120  0.524-   3 2.00  19 2.03
 214  0.993  0.626  0.999-   4 2.02  20 2.05
 215  0.999  0.628  0.502-   5 1.94  21 2.02
 216  0.503  0.124  0.994-   6 2.02  22 2.07
 217  0.489  0.627  0.996-  24 2.01   8 2.05
 218  0.504  0.626  0.493-  25 1.95   9 1.98
 219  0.991  0.127  0.237-  10 1.94  26 2.03
 220  0.996  0.624  0.249-  28 1.93  12 2.04
 221  0.001  0.625  0.748-  13 1.97  29 1.97
 222  0.499  0.626  0.258-  32 1.94  16 2.00
 223  0.006  0.379  0.490-   5 1.92  19 2.03
 224  0.498  0.372  0.510-  23 1.96   9 1.97
 225  0.493  0.878  0.503-  25 1.96   7 2.01
 226  0.003  0.372  0.759-  13 1.96  27 2.01
 227  0.997  0.876  0.258-  10 1.97  28 1.99
 228  0.008  0.877  0.756-  29 1.95  11 2.02
 229  0.506  0.372  0.238-  16 1.96  30 2.01
 230  0.505  0.372  0.742-  31 2.02  17 2.05
 231  0.499  0.876  0.242-  32 1.93  14 2.05
 232  0.511  0.876  0.749-  15 2.00  33 2.08
 233  0.247  0.125  0.993-  34 1.96  50 1.97
 234  0.258  0.124  0.497-  35 2.01  51 2.06
 235  0.250  0.627  0.505-  53 1.99  37 2.05
 236  0.745  0.126  0.013-  54 1.95  38 1.96
 237  0.761  0.625  0.012-  56 1.94  40 1.96
 238  0.746  0.625  0.510-  57 1.96  41 1.99
 239  0.261  0.126  0.253-  42 1.93  58 2.04
 240  0.263  0.124  0.757-  43 1.97  59 1.98
 241  0.254  0.624  0.241-  60 1.93  44 2.04
 242  0.759  0.126  0.237-  62 1.96  46 1.96
 243  0.749  0.625  0.237-  64 1.94  48 1.96
 244  0.749  0.624  0.739-  65 1.97  49 1.98
 245  0.248  0.376  0.997-  50 1.93  36 2.03
 246  0.244  0.874  0.002-  34 1.93  52 2.04
 247  0.747  0.374  0.980-  54 1.95  40 1.97
 248  0.751  0.372  0.483-  41 1.96  55 2.01
 249  0.744  0.875  0.995-  38 1.96  56 1.96
 250  0.756  0.877  0.494-  57 1.95  39 2.02
 251  0.244  0.375  0.756-  59 1.93  45 2.04
 252  0.252  0.876  0.251-  42 1.96  60 1.98
 253  0.237  0.874  0.747-  43 1.93  61 2.05
 254  0.745  0.374  0.271-  62 1.94  48 1.97
 255  0.749  0.371  0.764-  49 1.96  63 2.01
 256  0.751  0.876  0.255-  46 1.95  64 1.95
 257  0.744  0.877  0.754-  65 1.96  47 2.01
 

IMPORTANT INFORMATION: All symmetrisations will be switched off!
NOSYMM: (Re-)initialisation of all symmetry stuff for point group C_1.

 
 
 KPOINTS: Title                                   

Automatic generation of k-mesh.
Space group operators:
 irot       det(A)        alpha          n_x          n_y          n_z        tau_x        tau_y        tau_z
    1     1.000000     0.000001     1.000000     0.000000     0.000000     0.000000     0.000000     0.000000
 
 Subroutine IBZKPT returns following result:
 ===========================================
 
 Found      4 irreducible k-points:
 
 Following reciprocal coordinates:
            Coordinates               Weight
  0.250000  0.250000  0.250000      2.000000
 -0.250000  0.250000  0.250000      2.000000
  0.250000 -0.250000  0.250000      2.000000
 -0.250000 -0.250000  0.250000      2.000000
 
 Following cartesian coordinates:
            Coordinates               Weight
  0.016206  0.016206  0.016206      2.000000
 -0.016206  0.016206  0.016206      2.000000
  0.016206 -0.016206  0.016206      2.000000
 -0.016206 -0.016206  0.016206      2.000000
 


--------------------------------------------------------------------------------------------------------




 Dimension of arrays:
   k-points           NKPTS =      4   k-points in BZ     NKDIM =      4   number of bands    NBANDS=   1164
   number of dos      NEDOS =   3001   number of ions     NIONS =    257
   non local maximal  LDIM  =      6   non local SUM 2l+1 LMDIM =     18
   total plane-waves  NPLWV = ******
   max r-space proj   IRMAX =   7595   max aug-charges    IRDMAX= 146383
   dimension x,y,z NGX =   120 NGY =  120 NGZ =  120
   dimension x,y,z NGXF=   240 NGYF=  240 NGZF=  240
   support grid    NGXF=   480 NGYF=  480 NGZF=  480
   ions per type =               1  64  64 128
   NGX,Y,Z   is equivalent  to a cutoff of  12.93, 12.93, 12.93 a.u.
   NGXF,Y,Z  is equivalent  to a cutoff of  25.86, 25.86, 25.86 a.u.

 SYSTEM =  LTO                                     
 POSCAR =  config 51                               

 Startparameter for this run:
   NWRITE =      2    write-flag & timer
   PREC   = accura    normal or accurate (medium, high low for compatibility)
   ISTART =      1    job   : 0-new  1-cont  2-samecut
   ICHARG =      0    charge: 1-file 2-atom 10-const
   ISPIN  =      2    spin polarized calculation?
   LNONCOLLINEAR =      F non collinear calculations
   LSORBIT =      F    spin-orbit coupling
   INIWAV =      1    electr: 0-lowe 1-rand  2-diag
   LASPH  =      T    aspherical Exc in radial PAW
   METAGGA=      F    non-selfconsistent MetaGGA calc.

 Electronic Relaxation 1
   ENCUT  =  500.0 eV  36.75 Ry    6.06 a.u.  28.13 28.13 28.13*2*pi/ulx,y,z
   ENINI  =  500.0     initial cutoff
   ENAUG  =  628.9 eV  augmentation charge cutoff
   NELM   =     60;   NELMIN=  2; NELMDL=  0     # of ELM steps 
   EDIFF  = 0.1E-05   stopping-criterion for ELM
   LREAL  =      T    real-space projection
   NLSPLINE    = F    spline interpolate recip. space projectors
   LCOMPAT=      F    compatible to vasp.4.4
   GGA_COMPAT  = T    GGA compatible to vasp.4.4-vasp.4.6
   LMAXPAW     = -100 max onsite density
   LMAXMIX     =    4 max onsite mixed and CHGCAR
   VOSKOWN=      0    Vosko Wilk Nusair interpolation
   ROPT   =   -0.00010  -0.00010  -0.00010  -0.00010
 Ionic relaxation
   EDIFFG = -.5E-01   stopping-criterion for IOM
   NSW    =    100    number of steps for IOM
   NBLOCK =      1;   KBLOCK =    100    inner block; outer block 
   IBRION =      1    ionic relax: 0-MD 1-quasi-New 2-CG
   NFREE  =      0    steps in history (QN), initial steepest desc. (CG)
   ISIF   =      2    stress and relaxation
   IWAVPR =     11    prediction:  0-non 1-charg 2-wave 3-comb
   ISYM   =      0    0-nonsym 1-usesym 2-fastsym
   LCORR  =      T    Harris-Foulkes like correction to forces

   POTIM  = 0.5000    time-step for ionic-motion
   TEIN   =    0.0    initial temperature
   TEBEG  =    0.0;   TEEND  =   0.0 temperature during run
   SMASS  =  -3.00    Nose mass-parameter (am)
   estimated Nose-frequenzy (Omega)   =  0.10E-29 period in steps =****** mass=  -0.544E-26a.u.
   SCALEE = 1.0000    scale energy and forces
   NPACO  =    256;   APACO  = 16.0  distance and # of slots for P.C.
   PSTRESS=    0.0 pullay stress

  Mass of Ions in am
   POMASS =   7.01 47.88 16.00 19.00
  Ionic Valenz
   ZVAL   =   3.00 10.00  6.00  7.00
  Atomic Wigner-Seitz radii
   RWIGS  =  -1.00 -1.00 -1.00 -1.00
  virtual crystal weights 
   VCA    =   1.00  1.00  1.00  1.00
   NELECT =    1923.0000    total number of electrons
   NUPDOWN=       1.0000    fix difference up-down

 DOS related values:
   EMIN   =  10.00;   EMAX   =-10.00  energy-range for DOS
   EFERMI =   0.00
   ISMEAR =     0;   SIGMA  =   0.01  broadening in eV -4-tet -1-fermi 0-gaus

 Electronic relaxation 2 (details)
   IALGO  =     38    algorithm
   LDIAG  =      T    sub-space diagonalisation (order eigenvalues)
   LSUBROT=      F    optimize rotation matrix (better conditioning)
   TURBO    =      0    0=normal 1=particle mesh
   IRESTART =      0    0=no restart 2=restart with 2 vectors
   NREBOOT  =      0    no. of reboots
   NMIN     =      0    reboot dimension
   EREF     =   0.00    reference energy to select bands
   IMIX   =      4    mixing-type and parameters
     AMIX     =   0.40;   BMIX     =  1.00
     AMIX_MAG =   1.60;   BMIX_MAG =  1.00
     AMIN     =   0.10
     WC   =   100.;   INIMIX=   1;  MIXPRE=   1;  MAXMIX= -45

 Intra band minimization:
   WEIMIN = 0.0010     energy-eigenvalue tresh-hold
   EBREAK =  0.21E-09  absolut break condition
   DEPER  =   0.30     relativ break condition  

   TIME   =   0.40     timestep for ELM

  volume/ion in A,a.u.               =      14.28        96.39
  Fermi-wavevector in a.u.,A,eV,Ry     =   1.319690  2.493853 23.695660  1.741582
  Thomas-Fermi vector in A             =   2.449570
 
 Write flags
   LWAVE        =      T    write WAVECAR
   LDOWNSAMPLE  =      F    k-point downsampling of WAVECAR
   LCHARG       =      T    write CHGCAR
   LVTOT        =      F    write LOCPOT, total local potential
   LVHAR        =      F    write LOCPOT, Hartree potential only
   LELF         =      F    write electronic localiz. function (ELF)
   LORBIT       =     11    0 simple, 1 ext, 2 COOP (PROOUT), +10 PAW based schemes


 Dipole corrections
   LMONO  =      F    monopole corrections only (constant potential shift)
   LDIPOL =      F    correct potential (dipole corrections)
   IDIPOL =      0    1-x, 2-y, 3-z, 4-all directions 
   EPSILON=  1.0000000 bulk dielectric constant

 LDA+U is selected, type is set to LDAUTYPE =  2
   angular momentum for each species LDAUL =    -1    2   -1   -1
   U (eV)           for each species LDAUU =   0.0  4.2  0.0  0.0
   J (eV)           for each species LDAUJ =   0.0  0.0  0.0  0.0
 Exchange correlation treatment:
   GGA     =    PS    GGA type
   LEXCH   =    14    internal setting for exchange type
   VOSKOWN=      0    Vosko Wilk Nusair interpolation
   LHFCALC =     F    Hartree Fock is set to
   LHFONE  =     F    Hartree Fock one center treatment
   AEXX    =    0.0000 exact exchange contribution

 Linear response parameters
   LEPSILON=     F    determine dielectric tensor
   LRPA    =     F    only Hartree local field effects (RPA)
   LNABLA  =     F    use nabla operator in PAW spheres
   LVEL    =     F    velocity operator in full k-point grid
   LINTERFAST=   F  fast interpolation
   KINTER  =     0    interpolate to denser k-point grid
   CSHIFT  =0.1000    complex shift for real part using Kramers Kronig
   OMEGAMAX=  -1.0    maximum frequency
   DEG_THRESHOLD= 0.2000000E-02 threshold for treating states as degnerate
   RTIME   =   -0.100 relaxation time in fs
  (WPLASMAI=    0.000 imaginary part of plasma frequency in eV, 0.658/RTIME)
   DFIELD  = 0.0000000 0.0000000 0.0000000 field for delta impulse in time
 
 Orbital magnetization related:
   ORBITALMAG=     F  switch on orbital magnetization
   LCHIMAG   =     F  perturbation theory with respect to B field
   DQ        =  0.001000  dq finite difference perturbation B field
   LLRAUG    =     F  two centre corrections for induced B field



--------------------------------------------------------------------------------------------------------


 quasi-Newton-method for relaxation of ions
 charge density and potential will be updated during run
 spin polarized calculation
 Variant of blocked Davidson
 Davidson routine will perform the subspace rotation
 perform sub-space diagonalisation
    after iterative eigenvector-optimisation
 modified Broyden-mixing scheme, WC =      100.0
 initial mixing is a Kerker type mixing with AMIX =  0.4000 and BMIX =      1.0000
 Hartree-type preconditioning will be used
 using additional bands          202
 real space projection scheme for non local part
 use partial core corrections
 calculate Harris-corrections to forces 
   (improved forces if not selfconsistent)
 use gradient corrections 
 use of overlap-Matrix (Vanderbilt PP)
 Gauss-broadening in eV      SIGMA  =   0.01


--------------------------------------------------------------------------------------------------------


  energy-cutoff  :      500.00
  volume of cell :     3671.03
      direct lattice vectors                 reciprocal lattice vectors
    15.426331000  0.000000000  0.000000000     0.064824228  0.000000000  0.000000000
     0.000000000 15.426331000  0.000000000     0.000000000  0.064824228  0.000000000
     0.000000000  0.000000000 15.426331000     0.000000000  0.000000000  0.064824228

  length of vectors
    15.426331000 15.426331000 15.426331000     0.064824228  0.064824228  0.064824228


 
 old parameters found on file WAVECAR:
  energy-cutoff  :      500.00
  volume of cell :     3671.03
      direct lattice vectors                 reciprocal lattice vectors
    15.426331000  0.000000000  0.000000000     0.064824228  0.000000000  0.000000000
     0.000000000 15.426331000  0.000000000     0.000000000  0.064824228  0.000000000
     0.000000000  0.000000000 15.426331000     0.000000000  0.000000000  0.064824228

  length of vectors

 
 k-points in units of 2pi/SCALE and weight: Title                                   
   0.01620606  0.01620606  0.01620606       0.250
  -0.01620606  0.01620606  0.01620606       0.250
   0.01620606 -0.01620606  0.01620606       0.250
  -0.01620606 -0.01620606  0.01620606       0.250
 
 k-points in reciprocal lattice and weights: Title                                   
   0.25000000  0.25000000  0.25000000       0.250
  -0.25000000  0.25000000  0.25000000       0.250
   0.25000000 -0.25000000  0.25000000       0.250
  -0.25000000 -0.25000000  0.25000000       0.250
 
 position of ions in fractional coordinates (direct lattice) 
   0.87635754  0.13176655  0.66890304
   0.99537143  0.99555439  0.99520036
   0.99982826  0.99437890  0.49303746
   0.00607044  0.49547027  0.99690990
   0.99444411  0.50204702  0.50662346
   0.49417983  0.99409229  0.99968936
   0.49987196  0.00812689  0.49867861
   0.50470377  0.49509119  0.99624741
   0.49210600  0.49861272  0.49502972
   0.00622984  0.00385332  0.25641042
   0.00288936  0.00765024  0.75721479
   0.99444545  0.49240908  0.25185934
   0.99321301  0.49749964  0.74155631
   0.50554833  0.00893922  0.25034303
   0.49118657  0.00338791  0.75164386
   0.49331955  0.49652809  0.25715132
   0.50055699  0.50324878  0.75847588
   0.99541481  0.25739336  0.00288906
   0.99840600  0.24778615  0.49404853
   0.99818920  0.75828769  0.00559224
   0.99807115  0.75865027  0.50528626
   0.49505255  0.25777151  0.00174076
   0.50849656  0.24546010  0.49751253
   0.50733656  0.75631008  0.99926743
   0.50679616  0.75209146  0.50874707
   0.99830360  0.25658394  0.25920252
   0.00982406  0.24214304  0.74932217
   0.00656138  0.74895418  0.24300091
   0.99338553  0.75209613  0.74304114
   0.50827745  0.24211882  0.25172777
   0.50472041  0.24122497  0.75084090
   0.50662779  0.75157062  0.25163654
   0.50109154  0.74108834  0.74360728
   0.25626428  0.99857449  0.00597604
   0.24913016  0.99399570  0.50626430
   0.24398943  0.50773063  0.99756355
   0.25405273  0.49423315  0.50643459
   0.75700091  0.00149188  0.99481585
   0.75013605  0.00761350  0.49426856
   0.74223385  0.49961154  0.00515516
   0.75578122  0.49719684  0.50499702
   0.24434931  0.00256669  0.24376270
   0.25762487  0.99696599  0.74414165
   0.25539388  0.49218767  0.25167266
   0.24806216  0.50612650  0.74114348
   0.74428238  0.00172895  0.25564906
   0.74726079  0.00710194  0.75598902
   0.75647085  0.49812125  0.24230204
   0.75728019  0.49640057  0.74212689
   0.25705196  0.25128265  0.00613221
   0.25214437  0.25658163  0.50448337
   0.25216884  0.74254417  0.99343225
   0.25123827  0.75541760  0.49257650
   0.75669848  0.25197588  0.00799384
   0.74367961  0.24278185  0.49708836
   0.74195532  0.74840866  0.99371210
   0.74176761  0.75114145  0.49351151
   0.25062627  0.25764813  0.24338836
   0.24583364  0.25023616  0.74341300
   0.24380658  0.74808159  0.25549124
   0.24919042  0.74167558  0.75640464
   0.74197018  0.25208154  0.24162329
   0.74184544  0.24196798  0.75100689
   0.74559635  0.74919303  0.25646557
   0.75752958  0.75057168  0.75648326
   0.00824826  0.49532400  0.62508518
   0.99451564  0.01305212  0.37626888
   0.99876581  0.00978033  0.87249476
   0.49972856  0.49059229  0.37512182
   0.49432218  0.49397797  0.87447319
   0.99882862  0.75319451  0.12505962
   0.00174122  0.75463657  0.62462861
   0.50125426  0.74920640  0.62468091
   0.98630003  0.23878962  0.37260579
   0.25405900  0.00301854  0.12514102
   0.25356304  0.00273365  0.62569816
   0.23954233  0.49556576  0.62607978
   0.75000249  0.48450125  0.12479715
   0.74567442  0.48690075  0.62429002
   0.75120198  0.00948228  0.37588064
   0.74722610  0.01006371  0.87257437
   0.24241103  0.24945181  0.12517194
   0.24851380  0.24919742  0.62603047
   0.73671756  0.26644415  0.12572758
   0.25439482  0.74663251  0.37447998
   0.25196707  0.75263033  0.87485196
   0.75207649  0.74277973  0.37390115
   0.74851338  0.74371153  0.87495265
   0.12481894  0.50466408  0.99423348
   0.62590758  0.50806116  0.99774210
   0.12498397  0.00440745  0.25228483
   0.62479766  0.00351813  0.25034528
   0.62432676  0.25151040  0.48681074
   0.62463906  0.74099815  0.00299037
   0.62439646  0.75791025  0.49582068
   0.12564452  0.23899956  0.75623481
   0.12530064  0.75023901  0.25146927
   0.62553544  0.24350509  0.26531787
   0.62503438  0.24102386  0.75605904
   0.62280853  0.75177643  0.25059429
   0.37593257  0.99867146  0.99261858
   0.37549786  0.50208784  0.50405528
   0.87261654  0.00133115  0.00023763
   0.87472157  0.50060829  0.49984213
   0.37596956  0.98629828  0.75609594
   0.37431302  0.49467738  0.24844946
   0.87487961  0.49636976  0.25182659
   0.87532862  0.49761756  0.74641839
   0.37603342  0.24893738  0.00765035
   0.87367901  0.25029154  0.00953994
   0.87488491  0.75364442  0.74914699
   0.50432324  0.12236439  0.49134412
   0.98425689  0.12560037  0.73299522
   0.49311335  0.12511729  0.26445057
   0.49107210  0.12324828  0.75084265
   0.49463918  0.62474070  0.75264365
   0.00133742  0.37501268  0.99661280
   0.00233015  0.87572215  0.99437465
   0.00160270  0.87609744  0.49168598
   0.50451758  0.37372912  0.00947732
   0.50553736  0.87535266  0.00648958
   0.00756716  0.37511583  0.25444356
   0.25657839  0.62526788  0.00159417
   0.74795380  0.12491587  0.51410485
   0.25694065  0.62456011  0.74961297
   0.76442823  0.12474983  0.73035310
   0.24934936  0.37328917  0.49404003
   0.24749762  0.87601822  0.49939534
   0.24117675  0.37449856  0.25623567
   0.99989499  0.99543662  0.12649998
   0.00428825  0.98876689  0.62552536
   0.00069429  0.50246664  0.12435698
   0.49520247  0.01051197  0.12597296
   0.49777843  0.99945406  0.62282199
   0.50230066  0.50960274  0.12713916
   0.50728791  0.50262816  0.62479590
   0.00301840  0.50801826  0.37583225
   0.99555237  0.50442070  0.87244752
   0.50220643  0.98582489  0.37618836
   0.51420600  0.99631893  0.87440758
   0.01167061  0.25295401  0.12663905
   0.00757491  0.26407608  0.62460184
   0.51401536  0.23611840  0.12660716
   0.50550804  0.24365742  0.62303239
   0.49592883  0.74278489  0.12666559
   0.98872827  0.24184126  0.87410717
   0.99403026  0.74483157  0.37501625
   0.00167501  0.74583508  0.87370662
   0.48594489  0.26491802  0.37513833
   0.49395338  0.25469627  0.87446329
   0.49291554  0.75807752  0.37536120
   0.49850913  0.75598770  0.87372618
   0.24482832  0.49454296  0.12453552
   0.74846577  0.99308071  0.12597211
   0.74615426  0.98804233  0.62330158
   0.25239519  0.00152535  0.37547547
   0.24339700  0.99531902  0.87414119
   0.24814689  0.51137880  0.37517162
   0.25981937  0.49722219  0.87346772
   0.74638078  0.51216531  0.37454021
   0.75257881  0.51055535  0.87352399
   0.25203373  0.75476333  0.12471839
   0.24950170  0.75201208  0.62520352
   0.73841446  0.26651680  0.62369294
   0.75202760  0.75801167  0.12530476
   0.74728552  0.75668583  0.62441402
   0.26080343  0.24389253  0.37399473
   0.25716046  0.25078839  0.87491493
   0.76589395  0.23571469  0.37383032
   0.75968262  0.23492473  0.87477771
   0.12565198  0.00332330  0.00132331
   0.12467988  0.01136122  0.49856738
   0.12428707  0.50585650  0.49273092
   0.62536684  0.00342329  0.00581340
   0.62358867  0.98903231  0.50132242
   0.62517611  0.49702846  0.49774296
   0.12749383  0.01294695  0.74844153
   0.12460740  0.50951310  0.24918253
   0.12355646  0.50116951  0.76276540
   0.62336508  0.00701047  0.74146393
   0.62508171  0.50180828  0.24977607
   0.62669900  0.49904108  0.75536327
   0.12480733  0.24827590  0.98978430
   0.12905104  0.23856568  0.49226209
   0.12514761  0.74465308  0.00040282
   0.12423461  0.74625308  0.49616744
   0.62650884  0.24707554  0.98796386
   0.12522563  0.23648786  0.26021665
   0.12371807  0.74484071  0.75089575
   0.62635663  0.74659607  0.75022469
   0.37698426  0.00029941  0.49612625
   0.37373966  0.49459772  0.00743776
   0.87367478  0.99880789  0.51142015
   0.87466441  0.49709198  0.99849913
   0.37704856  0.99438427  0.25514699
   0.37489473  0.48879365  0.74084733
   0.87332850  0.99814121  0.24652353
   0.87439697  0.99152848  0.73876937
   0.37966516  0.24707887  0.50504056
   0.37669192  0.75821427  0.00172587
   0.37701310  0.74807204  0.50192611
   0.86850285  0.25227046  0.51796091
   0.87217710  0.75542961  0.99852341
   0.87231654  0.74821185  0.50359223
   0.37839120  0.25821036  0.24045469
   0.37667221  0.25814704  0.74686093
   0.37696443  0.75113677  0.24721994
   0.37544650  0.76338360  0.74861364
   0.87235372  0.25724694  0.23738179
   0.87371577  0.25322341  0.73219767
   0.87337177  0.75056628  0.24835957
   0.00211020  0.12662761  0.00681182
   0.98779824  0.12008807  0.52358363
   0.99304825  0.62592116  0.99910196
   0.99875593  0.62777112  0.50160563
   0.50333636  0.12431560  0.99398005
   0.48913338  0.62735376  0.99626529
   0.50446719  0.62649389  0.49316842
   0.99121063  0.12681291  0.23664054
   0.99635487  0.62434643  0.24865488
   0.00077466  0.62463895  0.74833150
   0.49854192  0.62624580  0.25835983
   0.00587757  0.37892815  0.49005947
   0.49817481  0.37178556  0.51017387
   0.49282529  0.87793921  0.50251211
   0.00261690  0.37219990  0.75887144
   0.99678316  0.87648761  0.25808483
   0.00801748  0.87698283  0.75604277
   0.50648874  0.37161747  0.23808933
   0.50518106  0.37175461  0.74229191
   0.49872973  0.87636488  0.24209276
   0.51146716  0.87563760  0.74862724
   0.24742686  0.12466644  0.99313893
   0.25775511  0.12354658  0.49736256
   0.24961166  0.62700947  0.50543298
   0.74526361  0.12629127  0.01349369
   0.76148038  0.62516959  0.01172343
   0.74570703  0.62542903  0.50970648
   0.26125499  0.12634447  0.25303802
   0.26339008  0.12407172  0.75702243
   0.25374369  0.62399136  0.24097504
   0.75854629  0.12646625  0.23673098
   0.74918588  0.62512638  0.23714048
   0.74851414  0.62443246  0.73922900
   0.24764322  0.37590792  0.99721910
   0.24391296  0.87410251  0.00243717
   0.74668069  0.37444782  0.97962947
   0.75084891  0.37238444  0.48299739
   0.74382210  0.87534756  0.99530140
   0.75597448  0.87654902  0.49355105
   0.24427020  0.37489869  0.75610706
   0.25248906  0.87580545  0.25130729
   0.23660508  0.87388265  0.74680448
   0.74536627  0.37412998  0.27091536
   0.74913722  0.37121013  0.76396917
   0.75136929  0.87570108  0.25508265
   0.74369822  0.87665758  0.75389252
 
 position of ions in cartesian coordinates  (Angst):
  13.51898149  2.03267448 10.31871965
  15.35492919 15.35775148 15.35229017
  15.42368164 15.33961799  7.60575899
   0.09364465  7.64328831 15.37866214
  15.34062400  7.74474346  7.81534112
   7.62338167 15.33519675 15.42153900
   7.71119024  0.12536815  7.69278135
   7.78572748  7.63744057 15.36844226
   7.59139001  7.69176489  7.63649235
   0.09610350  0.05944260  3.95547202
   0.04457218  0.11801506 11.68104592
  15.34064470  7.59606541  3.88526560
  15.32163265  7.67459418 11.43949311
   7.79875583  0.13789930  3.86187450
   7.57720660  0.05226300 11.59510699
   7.61011068  7.65960661  3.96690133
   7.72175787  7.76328231 11.70050004
  15.35559836  3.97063516  0.04456766
  15.40174144  3.82243115  7.62135612
  15.39839697 11.69759684  0.08626777
  15.39657585 11.70319021  7.79471306
   7.63684447  3.97646857  0.02685357
   7.84423625  3.78654874  7.67479290
   7.82634175 11.66708959 15.41503018
   7.81800538 11.60201184  7.84810066
  15.40016170  3.95814874  3.99854382
   0.15154927  3.73537867 11.55929183
   0.10121806 11.55361506  3.74861253
  15.32429398 11.60208385 11.46239860
   7.84085614  3.73500512  3.88323592
   7.78598407  3.72121616 11.58272021
   7.81540799 11.59397718  3.88182851
   7.73000396 11.43227405 11.47113208
   3.95321766 15.40434068  0.09218832
   3.84316437 15.33370670  7.80980067
   3.76386164  7.83242082 15.38874558
   3.91910157  7.62420414  7.81242765
  11.67774666  0.02301419 15.34635855
  11.57184708  0.11744830  7.62475043
  11.44994506  7.70717304  0.07952517
  11.65893129  7.66992310  7.79025117
   3.76941340  0.03959455  3.76036410
   3.97420646 15.37952735 11.47937536
   3.93979059  7.59264989  3.88238576
   3.82668893  7.80767497 11.43312461
  11.48154633  0.02667131  3.94372697
  11.52749235  0.10955687 11.66213681
  11.66956977  7.68418331  3.73783142
  11.68205490  7.65763952 11.44829504
   3.96536856  3.87636934  0.09459756
   3.88966249  3.95811313  7.78232742
   3.89004005 11.45473209 15.32501475
   3.87568465 11.65332190  7.59864809
  11.67308118  3.88706333  0.12331566
  11.47224782  3.74523311  7.66824958
  11.44564837 11.54519968 15.32933174
  11.44275263 11.58735657  7.61307184
   3.86624376  3.97456534  3.75458948
   3.79231106  3.86022580 11.46813498
   3.76104098 11.54015422  3.94129247
   3.84409384 11.44133293 11.66854839
  11.44587761  3.88869320  3.72736089
  11.44395325  3.73267814 11.58528087
  11.50181607 11.55729969  3.95632284
  11.68590202 11.57856714 11.66976120
   0.12724036  7.64103193  9.64277087
  15.34172744  0.20134626  5.80444829
  15.40729203  0.15087454 13.45939294
   7.70897813  7.56803902  5.78675342
   7.62557755  7.62026775 13.48991286
  15.40826096 11.61902787  1.92921112
   0.02686059 11.64127349  9.63572769
   7.73251417 11.55750598  9.63653447
  15.21499075  3.68364773  5.74794022
   3.91919823  0.04656503  1.93046678
   3.91154733  0.04217013  9.65222691
   3.69525919  7.64476140  9.65811392
  11.56978664  7.47407672  1.92516211
  11.50302036  7.51109211  9.63050455
  11.58829046  0.14627683  5.79845913
  11.52695717  0.15524613 13.46062100
   3.73951273  3.84812618  1.93094379
   3.83365607  3.84420193  9.65735326
  11.36484898  4.11025559  1.93951522
   3.92437872 11.51780030  5.77685219
   3.88692744 11.61032465 13.49575589
  11.60178094 11.45836600  5.76792288
  11.54681522 11.47274023 13.49730917
   1.92549832  7.78511508 15.33737473
   9.65545758  7.83751956 15.39149986
   1.92804413  0.06799079  3.89182926
   9.63833546  0.05427183  3.86190910
   9.63107133  3.87988262  7.50970357
   9.63588882 11.43088266  0.04613047
   9.63214649 11.69177437  7.64869399
   1.93823397  3.68688636 11.66592845
   1.93292920 11.57343534  3.87924823
   9.64971678  3.75639014  4.09288126
   9.64198722  3.71811387 11.66321700
   9.60765048 11.59715205  3.86575042
   5.79926030 15.40583647 15.31246275
   5.79255434  7.74537320  7.77572359
  13.46127160  0.02053484  0.00366580
  13.49374440  7.72254921  7.71073020
   5.79983095 15.21496379 11.66378628
   5.77427653  7.63105695  3.83266355
  13.49618248  7.65716426  3.88476030
  13.50310900  7.67641325 11.51449711
   5.80081599  3.84019047  0.11801687
  13.47766155  3.86108008  0.14716620
  13.49626428 11.62596825 11.55658942
   7.77985722  1.88763354  7.57963700
  15.18347262  1.93755283 11.30742687
   7.60692973  1.93010071  4.07950199
   7.57544081  1.90126875 11.58274718
   7.63046766  9.63745676 11.61053001
   0.02063153  5.78506979 15.37407900
   0.03594561 13.50917978 15.33955255
   0.02472375 13.51496917  7.58491060
   7.78285515  5.76526914  0.14620023
   7.79858673 13.50347989  0.10011039
   0.11673344  5.78666094  3.92513060
   3.95806313  9.64558924  0.02459222
  11.53818288  1.92699358  7.93075153
   3.96365152  9.63467095 11.56377774
  11.79232283  1.92443223 11.26666870
   3.84654583  5.75848225  7.62122496
   3.81798020 13.51374702  7.70383775
   3.72047244  5.77713875  3.95277633
  15.42471103 15.35593479  1.95143057
   0.06615197 15.25304528  9.64956129
   0.01071034  7.75121668  1.91837197
   7.63915728  0.16216115  1.94330063
   7.67889482 15.41790908  9.60785816
   7.74865627  7.86130061  1.96129069
   7.82559122  7.75370842  9.63830838
   0.04656278  7.83685791  5.79771266
  15.35772043  7.78136071 13.45866421
   7.74720268 15.20766108  5.80320611
   7.93231195 15.36954554 13.48890082
   0.18003473  3.90215236  1.95357587
   0.11685302  4.07372499  9.63531480
   7.92937105  3.64244052  1.95308393
   7.79813435  3.75874004  9.61110389
   7.65036235 11.45844553  1.95398532
  15.25244950  3.73072330 13.48426651
  15.33423982 11.49001837  5.78512480
   0.02583921 11.50549880 13.47808747
   7.49634669  4.08671308  5.78700812
   7.61988839  3.92902903 13.48976011
   7.60387825 11.69435472  5.79044605
   7.69016678 11.66211655 13.47838930
   3.77680271  7.62898344  1.92112616
  11.54608066 15.31959181  1.94328749
  11.51042252 15.24186796  9.61525653
   3.89353169  0.02353052  5.79220887
   3.75472270 15.35412071 13.48479141
   3.82799601  7.88869857  5.78752166
   4.00805964  7.67031408 13.47440216
  11.51391698  7.90083159  5.77778119
  11.60952985  7.87599577 13.47527013
   3.88795571 11.64322903  1.92394711
   3.84889577 11.60078729  9.64459639
  11.39102593  4.11137634  9.62129368
  11.60102661 11.69333888  1.93299272
  11.52787382 11.67288613  9.63241739
   4.02324001  3.76236692  5.76936643
   3.96704241  3.86874478 13.49672725
  11.81493355  3.63621288  5.76683031
  11.71911559  3.62402670 13.49461057
   1.93834906  0.05126637  0.02041389
   1.92335308  0.17526194  7.69106548
   1.91729355  7.80350987  7.60103032
   9.64711594  0.05280875  0.08967946
   9.61968527 15.25713972  7.73356565
   9.64417353  7.66732557  7.67834771
   1.96676206  0.19972396 11.54570682
   1.92223505  7.85991776  3.84397214
   1.90602283  7.73120673 11.76667150
   9.61623605  0.10814581 11.43806806
   9.64271738  7.74106056  3.85312826
   9.66766622  7.69837286 11.65248380
   1.92531917  3.82998615 15.26874016
   1.99078412  3.68019317  7.59379791
   1.93056849 11.48726488  0.00621406
   1.91648415 11.51194697  7.65404320
   9.66473272  3.81146902 15.24065754
   1.93177196  3.64813993  4.01418812
   1.90851586 11.49015933 11.58356637
   9.66238470 11.51723818 11.57321433
   5.81548402  0.00461878  7.65340774
   5.76543171  7.62982817  0.11473730
  13.47759636 15.40794112  7.88933654
  13.49286277  7.66830537 15.40317805
   5.81647583 15.33970088  3.93598185
   5.78325012  7.54029257 11.42855619
  13.47225459 15.39765663  3.80295363
  13.48873710 15.29564660 11.39650076
   5.85684047  3.81152038  7.79092280
   5.81097421 11.69646433  0.02662386
   5.81592891 11.54000694  7.74287833
  13.39781250  3.89160761  7.99023649
  13.45449263 11.65350715 15.40355271
  13.45664371 11.54216362  7.76858037
   5.83718793  3.98323841  3.70933369
   5.81067019  3.98226174 11.52132387
   5.81517806 11.58728437  3.81369662
   5.79176204 11.77620802 11.54836187
  13.45721724  3.96837644  3.66193013
  13.47822868  3.90630814 11.29512365
  13.47292205 11.57848380  3.83127696
   0.03255258  1.95339942  0.10508140
  15.23810262  1.85251833  8.07697443
  15.31909097  9.65566692 15.41247754
  15.40713963  9.68420510  7.73793443
   7.76463332  1.91773362 15.33346533
   7.54553343  9.67776681 15.36871806
   7.78207788  9.66450206  7.60777930
  15.29074333  1.95625800  3.65049527
  15.37009995  9.63137473  3.83583246
   0.01195015  9.63588720 11.54400935
   7.69067262  9.66067502  3.98554419
   0.09066935  5.84547112  7.55981966
   7.68500945  5.73528718  7.87011104
   7.60248610 13.54338080  7.75191821
   0.04036916  5.74167891 11.70660197
  15.37670695 13.52098797  3.98130198
   0.12368024 13.52862735 11.66296597
   7.81326301  5.73269412  3.67284482
   7.79309019  5.73480971 11.45084066
   7.69356987 13.51909479  3.73460311
   7.89006166 13.50787545 11.54857159
   3.81688872  1.92314573 15.32048993
   3.97621560  1.90587048  7.67247949
   3.85059206  9.67245558  7.79697647
  11.49668313  1.94821090  0.20815806
  11.74684846  9.64407306  0.18084950
  11.50352353  9.64807527  7.86290081
   4.03020595  1.94903160  3.90344825
   4.06314258  1.91397141 11.67807860
   3.91433413  9.62589719  3.71736075
  11.70158618  1.95091022  3.65189051
  11.55718937  9.64340650  3.65820755
  11.54682688  9.63270181 11.40359121
   3.82022623  5.79887999 15.38343193
   3.76268206 13.48419462  0.03759664
  11.51854347  5.77635596 15.11208845
  11.58284377  5.74452556  7.45087760
  11.47444588 13.50340116 15.35384888
  11.66191261 13.52193535  7.61368180
   3.76819301  5.78331132 11.66395775
   3.89497979 13.51046475  3.87674942
   3.64994830 13.48080307 11.52045316
  11.49826675  5.77145288  4.17922995
  11.55643870  5.72641037 11.78524126
  11.59087133 13.50885473  3.93498932
  11.47253493 13.52360997 11.62979553
 


--------------------------------------------------------------------------------------------------------


 k-point  1 :   0.2500 0.2500 0.2500  plane waves:   93161
 k-point  2 :  -0.2500 0.2500 0.2500  plane waves:   93161
 k-point  3 :   0.2500-0.2500 0.2500  plane waves:   93161
 k-point  4 :  -0.2500-0.2500 0.2500  plane waves:   93161

 maximum and minimum number of plane-waves per node :     11686    11606

 maximum number of plane-waves:     93161
 maximum index in each direction: 
   IXMAX=   28   IYMAX=   28   IZMAX=   27
   IXMIN=  -28   IYMIN=  -28   IZMIN=  -28


 real space projection operators:
  total allocation   :     105594.68 KBytes
  max/ min on nodes  :      13239.92      13165.09


 parallel 3D FFT for wavefunctions:
    minimum data exchange during FFTs selected (reduces bandwidth)
 parallel 3D FFT for charge:
    minimum data exchange during FFTs selected (reduces bandwidth)


 total amount of memory used by VASP MPI-rank0   291527. kBytes
=======================================================================

   base      :      30000. kBytes
   nonlr-proj:      49492. kBytes
   fftplans  :      27976. kBytes
   grid      :      34041. kBytes
   one-center:       1026. kBytes
   wavefun   :     148992. kBytes
 
     INWAV:  cpu time   58.8963: real time   61.9324
 Broyden mixing: mesh for mixing (old mesh)
   NGX = 57   NGY = 57   NGZ = 57
  (NGX  =240   NGY  =240   NGZ  =240)
  gives a total of 185193 points

 charge density for first step will be calculated from the start-wavefunctions


--------------------------------------------------------------------------------------------------------


 Maximum index for non-local projection operator          970
 Maximum index for augmentation-charges         3290 (set IRDMAX)


--------------------------------------------------------------------------------------------------------


 initial charge from wavefunction
 First call to EWALD:  gamma=   0.115
 Maximum number of real-space cells 3x 3x 3
 Maximum number of reciprocal cells 3x 3x 3

    FEWALD:  cpu time    0.0456: real time    0.0461


--------------------------------------- Iteration      1(   1)  ---------------------------------------


    POTLOK:  cpu time    0.3310: real time    0.3345
    SETDIJ:  cpu time    1.4387: real time    1.4397
     EDDAV:  cpu time  151.2859: real time  152.2550
       DOS:  cpu time    0.0020: real time    0.0021
    CHARGE:  cpu time    5.2189: real time    5.2229
    MIXING:  cpu time    0.0101: real time    0.0102
    --------------------------------------------
      LOOP:  cpu time  158.2868: real time  159.2645

 eigenvalue-minimisations  : 27528
 total energy-change (2. order) :-0.1758115E+04  (-0.2425213E-05)
 number of electron    1923.0000025 magnetization       1.0000000
 augmentation part      496.9234148 magnetization       0.5789365

 Broyden mixing:
  rms(total) = 0.93092E-03    rms(broyden)= 0.91735E-03
  rms(prec ) = 0.12196E-02
  weight for this iteration     100.00

 Free energy of the ion-electron system (eV)
  ---------------------------------------------------
  alpha Z        PSCENC =      6118.73324990
  Ewald energy   TEWEN  =   -103402.98005388
  -Hartree energ DENC   =    -65224.42675348
  -exchange      EXHF   =         0.00000000
  -V(xc)+E(xc)   XCENC  =      8969.66720497
  PAW double counting   =    197667.72036565  -198673.40703392
  entropy T*S    EENTRO =        -0.00000000
  eigenvalues    EBANDS =    -25790.67404791
  atomic energy  EATOM  =    178577.25249613
  Solvation  Ediel_sol  =         0.00000000
  ---------------------------------------------------
  free energy    TOTEN  =     -1758.11457254 eV

  energy without entropy =    -1758.11457254  energy(sigma->0) =    -1758.11457254


--------------------------------------------------------------------------------------------------------




--------------------------------------- Iteration      1(   2)  ---------------------------------------


    POTLOK:  cpu time    0.3362: real time    0.3365
    SETDIJ:  cpu time    1.4724: real time    1.4736
     EDDAV:  cpu time  147.9639: real time  149.0484
       DOS:  cpu time    0.0019: real time    0.0019
    CHARGE:  cpu time    5.2138: real time    5.2171
    MIXING:  cpu time    0.0510: real time    0.0511
    --------------------------------------------
      LOOP:  cpu time  155.0392: real time  156.1286

 eigenvalue-minimisations  : 26808
 total energy-change (2. order) : 0.1551729E-05  (-0.2608480E-05)
 number of electron    1923.0000025 magnetization       1.0000000
 augmentation part      496.9222907 magnetization       0.5789326

 Broyden mixing:
  rms(total) = 0.10071E-02    rms(broyden)= 0.99461E-03
  rms(prec ) = 0.11608E-02
  weight for this iteration     100.00

 eigenvalues of (default mixing * dielectric matrix)
  average eigenvalue GAMMA=   0.4570
  0.4570

 Free energy of the ion-electron system (eV)
  ---------------------------------------------------
  alpha Z        PSCENC =      6118.73324990
  Ewald energy   TEWEN  =   -103402.98005388
  -Hartree energ DENC   =    -65224.45335192
  -exchange      EXHF   =         0.00000000
  -V(xc)+E(xc)   XCENC  =      8969.66652238
  PAW double counting   =    197667.61007875  -198673.29318822
  entropy T*S    EENTRO =        -0.00000000
  eigenvalues    EBANDS =    -25790.65032413
  atomic energy  EATOM  =    178577.25249613
  Solvation  Ediel_sol  =         0.00000000
  ---------------------------------------------------
  free energy    TOTEN  =     -1758.11457099 eV

  energy without entropy =    -1758.11457099  energy(sigma->0) =    -1758.11457099


--------------------------------------------------------------------------------------------------------




--------------------------------------- Iteration      1(   3)  ---------------------------------------


    POTLOK:  cpu time    0.2969: real time    0.2971
    SETDIJ:  cpu time    1.4038: real time    1.4049
     EDDAV:  cpu time  115.7031: real time  116.5176
       DOS:  cpu time    0.0019: real time    0.0019
    CHARGE:  cpu time    5.2541: real time    5.2576
    MIXING:  cpu time    0.0139: real time    0.0139
    --------------------------------------------
      LOOP:  cpu time  122.6737: real time  123.4931

 eigenvalue-minimisations  : 19464
 total energy-change (2. order) : 0.1278066E-05  (-0.5711322E-06)
 number of electron    1923.0000025 magnetization       1.0000000
 augmentation part      496.9224265 magnetization       0.5789323

 Broyden mixing:
  rms(total) = 0.48198E-03    rms(broyden)= 0.45581E-03
  rms(prec ) = 0.60674E-03
  weight for this iteration     100.00

 eigenvalues of (default mixing * dielectric matrix)
  average eigenvalue GAMMA=   0.7203
  0.7203  0.7203

 Free energy of the ion-electron system (eV)
  ---------------------------------------------------
  alpha Z        PSCENC =      6118.73324990
  Ewald energy   TEWEN  =   -103402.98005388
  -Hartree energ DENC   =    -65224.45797178
  -exchange      EXHF   =         0.00000000
  -V(xc)+E(xc)   XCENC  =      8969.66732704
  PAW double counting   =    197667.63710629  -198673.32169737
  entropy T*S    EENTRO =        -0.00000000
  eigenvalues    EBANDS =    -25790.64502604
  atomic energy  EATOM  =    178577.25249613
  Solvation  Ediel_sol  =         0.00000000
  ---------------------------------------------------
  free energy    TOTEN  =     -1758.11456971 eV

  energy without entropy =    -1758.11456971  energy(sigma->0) =    -1758.11456971


--------------------------------------------------------------------------------------------------------




--------------------------------------- Iteration      1(   4)  ---------------------------------------


    POTLOK:  cpu time    0.3160: real time    0.3163
    SETDIJ:  cpu time    1.4195: real time    1.4204
     EDDAV:  cpu time   90.4852: real time   91.2131
       DOS:  cpu time    0.0022: real time    0.0022
    --------------------------------------------
      LOOP:  cpu time   92.2228: real time   92.9519

 eigenvalue-minimisations  : 13596
 total energy-change (2. order) : 0.5331531E-06  (-0.2175763E-06)
 number of electron    1923.0000025 magnetization       1.0000000
 augmentation part      496.9224265 magnetization       0.5789323

 Free energy of the ion-electron system (eV)
  ---------------------------------------------------
  alpha Z        PSCENC =      6118.73324990
  Ewald energy   TEWEN  =   -103402.98005388
  -Hartree energ DENC   =    -65224.45902531
  -exchange      EXHF   =         0.00000000
  -V(xc)+E(xc)   XCENC  =      8969.66771021
  PAW double counting   =    197667.52864615  -198673.21399951
  entropy T*S    EENTRO =        -0.00000000
  eigenvalues    EBANDS =    -25790.64359287
  atomic energy  EATOM  =    178577.25249613
  Solvation  Ediel_sol  =         0.00000000
  ---------------------------------------------------
  free energy    TOTEN  =     -1758.11456918 eV

  energy without entropy =    -1758.11456918  energy(sigma->0) =    -1758.11456918


--------------------------------------------------------------------------------------------------------




 average (electrostatic) potential at core
  the test charge radii are     0.7079  1.0397  0.7215  0.7167
  (the norm of the test charge is              1.0000)
       1 -63.1375       2 -58.5229       3 -58.8025       4 -58.7454       5 -58.7804
       6 -58.8286       7 -59.7475       8 -58.4622       9 -58.6520      10 -58.8682
      11 -58.7638      12 -58.7077      13 -58.7857      14 -59.1001      15 -58.9869
      16 -58.7228      17 -58.6963      18 -58.8054      19 -56.8625      20 -58.6221
      21 -58.8335      22 -58.6184      23 -59.3894      24 -58.8597      25 -58.8598
      26 -58.5676      27 -58.8532      28 -58.6926      29 -58.8539      30 -59.1118
      31 -59.1143      32 -59.4513      33 -58.7959      34 -58.8104      35 -58.8519
      36 -58.6699      37 -58.3926      38 -58.8266      39 -59.1242      40 -58.6667
      41 -58.8470      42 -58.8276      43 -58.9071      44 -58.7093      45 -58.5872
      46 -59.1794      47 -59.0084      48 -58.7401      49 -58.8408      50 -58.7164
      51 -58.6513      52 -58.6662      53 -58.8049      54 -58.8918      55 -59.2391
      56 -58.8810      57 -59.0204      58 -58.7217      59 -58.8239      60 -58.7492
      61 -58.7107      62 -59.0178      63 -59.0891      64 -59.1437      65 -58.9047
      66 -74.0657      67 -74.0053      68 -73.9468      69 -73.8388      70 -73.8081
      71 -73.8550      72 -73.9821      73 -74.2331      74 -73.7950      75 -73.9623
      76 -74.0410      77 -73.8879      78 -73.8830      79 -73.9420      80 -74.3063
      81 -74.1842      82 -73.8833      83 -73.9061      84 -74.3164      85 -73.9271
      86 -73.8744      87 -74.1988      88 -74.0786      89 -73.8410      90 -73.7852
      91 -74.0202      92 -74.2493      93 -74.5377      94 -74.1628      95 -74.2570
      96 -74.1738      97 -73.9525      98 -74.3358      99 -74.3159     100 -74.3444
     101 -73.9662     102 -73.7765     103 -73.9352     104 -73.9060     105 -74.3171
     106 -73.8844     107 -73.8989     108 -74.1018     109 -73.8715     110 -73.9969
     111 -74.1822     112 -74.8363     113 -74.1514     114 -74.4230     115 -74.1833
     116 -73.9998     117 -73.8848     118 -73.7756     119 -74.1218     120 -73.8169
     121 -73.9833     122 -73.9887     123 -73.9918     124 -74.4590     125 -74.0047
     126 -74.2998     127 -73.7864     128 -73.9599     129 -74.0339     130 -78.3975
     131 -78.3521     132 -79.0305     133 -79.6227     134 -79.8820     135 -78.2957
     136 -78.2628     137 -78.8486     138 -78.8739     139 -79.8978     140 -79.5647
     141 -78.8353     142 -79.0460     143 -79.4990     144 -79.6695     145 -79.3913
     146 -79.1987     147 -78.3631     148 -78.3507     149 -79.7018     150 -79.4557
     151 -79.2277     152 -79.1070     153 -78.9853     154 -78.6538     155 -78.6169
     156 -78.4427     157 -78.4225     158 -78.7807     159 -78.7589     160 -78.3078
     161 -78.3158     162 -78.3800     163 -78.3257     164 -79.3028     165 -78.5333
     166 -78.5594     167 -78.3548     168 -78.3091     169 -79.1639     170 -79.1612
     171 -78.3791     172 -79.5524     173 -78.2986     174 -78.3572     175 -79.9212
     176 -78.2738     177 -79.1608     178 -78.3413     179 -78.8814     180 -79.2173
     181 -78.3426     182 -78.8973     183 -78.3322     184 -78.8598     185 -79.0246
     186 -79.1617     187 -78.3698     188 -79.0342     189 -78.9732     190 -79.0163
     191 -79.8295     192 -78.2667     193 -79.6421     194 -78.2167     195 -78.5872
     196 -79.0340     197 -78.5451     198 -79.3434     199 -79.0570     200 -78.9311
     201 -79.0601     202 -78.9622     203 -78.8908     204 -79.0451     205 -78.9480
     206 -78.7467     207 -78.5378     208 -79.1747     209 -78.9847     210 -78.7295
     211 -78.6332     212 -78.2800     213 -78.7255     214 -78.2811     215 -78.9117
     216 -78.3456     217 -78.3551     218 -79.2771     219 -78.9083     220 -78.8340
     221 -79.1688     222 -79.3409     223 -78.8481     224 -79.2355     225 -79.2668
     226 -79.1102     227 -79.0561     228 -79.0661     229 -79.0923     230 -78.5264
     231 -79.2786     232 -78.5354     233 -79.0420     234 -78.3094     235 -78.3377
     236 -79.3795     237 -79.3206     238 -79.2562     239 -78.9240     240 -79.1236
     241 -78.8764     242 -79.5548     243 -79.4778     244 -79.2197     245 -78.8151
     246 -78.8694     247 -79.3378     248 -79.1091     249 -79.3594     250 -79.1760
     251 -78.8942     252 -79.0860     253 -78.9289     254 -79.4810     255 -79.1614
     256 -79.5516     257 -79.1555
 
 
 
 E-fermi :  -0.6353     XC(G=0):  -9.0469     alpha+bet : -7.7421


 spin component 1

 k-point     1 :       0.2500    0.2500    0.2500
  band No.  band energies     occupation 
      1     -43.8119      1.00000
      2     -35.7806      1.00000
      3     -35.7647      1.00000
      4     -35.5813      1.00000
      5     -35.4305      1.00000
      6     -35.4248      1.00000
      7     -35.4171      1.00000
      8     -35.2825      1.00000
      9     -35.2482      1.00000
     10     -35.2260      1.00000
     11     -35.2222      1.00000
     12     -35.2143      1.00000
     13     -35.1766      1.00000
     14     -35.1615      1.00000
     15     -35.1569      1.00000
     16     -35.1554      1.00000
     17     -35.1486      1.00000
     18     -35.1253      1.00000
     19     -35.1086      1.00000
     20     -35.0908      1.00000
     21     -35.0622      1.00000
     22     -35.0524      1.00000
     23     -35.0473      1.00000
     24     -35.0410      1.00000
     25     -35.0318      1.00000
     26     -35.0298      1.00000
     27     -35.0083      1.00000
     28     -35.0024      1.00000
     29     -34.9935      1.00000
     30     -34.9916      1.00000
     31     -34.9843      1.00000
     32     -34.9801      1.00000
     33     -34.9700      1.00000
     34     -34.9626      1.00000
     35     -34.9586      1.00000
     36     -34.9469      1.00000
     37     -34.9463      1.00000
     38     -34.9397      1.00000
     39     -34.9366      1.00000
     40     -34.9262      1.00000
     41     -34.9249      1.00000
     42     -34.9232      1.00000
     43     -34.9223      1.00000
     44     -34.9148      1.00000
     45     -34.9028      1.00000
     46     -34.9000      1.00000
     47     -34.8952      1.00000
     48     -34.8948      1.00000
     49     -34.8832      1.00000
     50     -34.8799      1.00000
     51     -34.8777      1.00000
     52     -34.8749      1.00000
     53     -34.8742      1.00000
     54     -34.8631      1.00000
     55     -34.8593      1.00000
     56     -34.8580      1.00000
     57     -34.8532      1.00000
     58     -34.8506      1.00000
[...]
   81        1.574   3.457   0.000   5.031
   82        1.575   3.460   0.000   5.035
   83        1.574   3.459   0.000   5.033
   84        1.576   3.466   0.000   5.042
   85        1.575   3.463   0.000   5.038
   86        1.575   3.466   0.000   5.041
   87        1.576   3.462   0.000   5.037
   88        1.575   3.464   0.000   5.039
   89        1.575   3.462   0.000   5.037
   90        1.575   3.458   0.000   5.033
   91        1.574   3.460   0.000   5.034
   92        1.574   3.461   0.000   5.035
   93        1.578   3.470   0.000   5.048
   94        1.577   3.471   0.000   5.048
   95        1.576   3.476   0.000   5.052
   96        1.576   3.466   0.000   5.041
   97        1.575   3.465   0.000   5.040
   98        1.576   3.469   0.000   5.045
   99        1.576   3.467   0.000   5.043
  100        1.576   3.458   0.000   5.033
  101        1.574   3.459   0.000   5.033
  102        1.575   3.460   0.000   5.035
  103        1.576   3.457   0.000   5.033
  104        1.574   3.460   0.000   5.034
  105        1.577   3.472   0.000   5.049
  106        1.575   3.462   0.000   5.037
  107        1.575   3.462   0.000   5.037
  108        1.576   3.475   0.000   5.051
  109        1.574   3.461   0.000   5.035
  110        1.575   3.458   0.000   5.033
  111        1.576   3.473   0.000   5.049
  112        1.577   3.464   0.000   5.042
  113        1.568   3.499   0.000   5.066
  114        1.577   3.472   0.000   5.049
  115        1.575   3.463   0.000   5.038
  116        1.574   3.461   0.000   5.035
  117        1.575   3.461   0.000   5.036
  118        1.575   3.461   0.000   5.037
  119        1.576   3.472   0.000   5.048
  120        1.575   3.459   0.000   5.034
  121        1.574   3.462   0.000   5.037
  122        1.575   3.470   0.000   5.045
  123        1.577   3.473   0.000   5.050
  124        1.575   3.468   0.000   5.043
  125        1.575   3.472   0.000   5.048
  126        1.567   3.491   0.000   5.059
  127        1.575   3.459   0.000   5.033
  128        1.574   3.460   0.000   5.035
  129        1.576   3.469   0.000   5.046
  130        1.737   4.369   0.000   6.106
  131        1.737   4.369   0.000   6.105
  132        1.737   4.380   0.000   6.117
  133        1.738   4.387   0.000   6.125
  134        1.738   4.385   0.000   6.123
  135        1.737   4.368   0.000   6.105
  136        1.736   4.366   0.000   6.103
  137        1.738   4.380   0.000   6.118
  138        1.739   4.381   0.000   6.119
  139        1.739   4.386   0.000   6.126
  140        1.739   4.386   0.000   6.125
  141        1.738   4.376   0.000   6.114
  142        1.738   4.383   0.000   6.120
  143        1.738   4.383   0.000   6.121
  144        1.738   4.385   0.000   6.123
  145        1.738   4.382   0.000   6.120
  146        1.737   4.377   0.000   6.114
  147        1.736   4.368   0.000   6.104
  148        1.736   4.368   0.000   6.104
  149        1.739   4.381   0.000   6.121
  150        1.738   4.386   0.000   6.125
  151        1.738   4.375   0.000   6.113
  152        1.738   4.379   0.000   6.117
  153        1.737   4.382   0.000   6.119
  154        1.737   4.371   0.000   6.108
  155        1.737   4.369   0.000   6.107
  156        1.737   4.370   0.000   6.106
  157        1.737   4.368   0.000   6.105
  158        1.738   4.375   0.000   6.114
  159        1.738   4.376   0.000   6.114
  160        1.736   4.365   0.000   6.101
  161        1.736   4.366   0.000   6.102
  162        1.736   4.369   0.000   6.106
  163        1.736   4.367   0.000   6.103
  164        1.738   4.374   0.000   6.111
  165        1.736   4.367   0.000   6.104
  166        1.736   4.368   0.000   6.104
  167        1.737   4.369   0.000   6.106
  168        1.737   4.369   0.000   6.106
  169        1.738   4.369   0.000   6.107
  170        1.738   4.371   0.000   6.109
  171        1.737   4.370   0.000   6.107
  172        1.738   4.387   0.000   6.125
  173        1.737   4.371   0.000   6.108
  174        1.737   4.369   0.000   6.106
  175        1.739   4.385   0.000   6.124
  176        1.737   4.368   0.000   6.104
  177        1.738   4.380   0.000   6.118
  178        1.737   4.369   0.000   6.105
  179        1.738   4.376   0.000   6.114
  180        1.738   4.379   0.000   6.117
  181        1.736   4.368   0.000   6.105
  182        1.738   4.378   0.000   6.115
  183        1.736   4.366   0.000   6.102
  184        1.737   4.382   0.000   6.119
  185        1.737   4.382   0.000   6.119
  186        1.738   4.382   0.000   6.120
  187        1.736   4.368   0.000   6.104
  188        1.737   4.377   0.000   6.114
  189        1.738   4.381   0.000   6.119
  190        1.738   4.380   0.000   6.118
  191        1.739   4.389   0.000   6.128
  192        1.737   4.369   0.000   6.106
  193        1.739   4.389   0.000   6.128
  194        1.736   4.368   0.000   6.104
  195        1.737   4.370   0.000   6.107
  196        1.737   4.379   0.000   6.117
  197        1.737   4.369   0.000   6.106
  198        1.737   4.378   0.000   6.115
  199        1.738   4.381   0.000   6.119
  200        1.738   4.381   0.000   6.119
  201        1.738   4.381   0.000   6.119
  202        1.737   4.380   0.000   6.117
  203        1.738   4.380   0.000   6.118
  204        1.738   4.379   0.000   6.117
  205        1.737   4.375   0.000   6.112
  206        1.737   4.373   0.000   6.110
  207        1.737   4.369   0.000   6.106
  208        1.737   4.378   0.000   6.116
  209        1.737   4.377   0.000   6.114
  210        1.736   4.370   0.000   6.106
  211        1.737   4.371   0.000   6.108
  212        1.737   4.368   0.000   6.105
  213        1.736   4.378   0.000   6.115
  214        1.736   4.367   0.000   6.104
  215        1.738   4.380   0.000   6.118
  216        1.736   4.368   0.000   6.104
  217        1.737   4.366   0.000   6.103
  218        1.737   4.381   0.000   6.119
  219        1.739   4.377   0.000   6.115
  220        1.738   4.379   0.000   6.117
  221        1.737   4.381   0.000   6.119
  222        1.737   4.379   0.000   6.116
  223        1.737   4.382   0.000   6.119
  224        1.738   4.382   0.000   6.120
  225        1.738   4.382   0.000   6.121
  226        1.737   4.378   0.000   6.115
  227        1.737   4.378   0.000   6.115
  228        1.737   4.378   0.000   6.115
  229        1.738   4.378   0.000   6.115
  230        1.736   4.368   0.000   6.104
  231        1.738   4.376   0.000   6.114
  232        1.737   4.368   0.000   6.104
  233        1.738   4.381   0.000   6.119
  234        1.737   4.370   0.000   6.107
  235        1.737   4.370   0.000   6.107
  236        1.738   4.385   0.000   6.124
  237        1.739   4.383   0.000   6.122
  238        1.737   4.379   0.000   6.116
  239        1.738   4.377   0.000   6.115
  240        1.738   4.379   0.000   6.116
  241        1.738   4.377   0.000   6.115
  242        1.738   4.383   0.000   6.122
  243        1.738   4.384   0.000   6.122
  244        1.737   4.379   0.000   6.116
  245        1.738   4.378   0.000   6.116
  246        1.738   4.378   0.000   6.116
  247        1.738   4.381   0.000   6.120
  248        1.738   4.376   0.000   6.114
  249        1.738   4.384   0.000   6.122
  250        1.738   4.379   0.000   6.117
  251        1.738   4.378   0.000   6.116
  252        1.737   4.381   0.000   6.118
  253        1.738   4.376   0.000   6.114
  254        1.739   4.382   0.000   6.121
  255        1.737   4.376   0.000   6.114
  256        1.738   4.385   0.000   6.123
  257        1.737   4.378   0.000   6.115
--------------------------------------------------
tot        345.4631195.165 112.3041652.932
 


 magnetization (x)
 
# of ion       s       p       d       tot
------------------------------------------
    1        0.000   0.000   0.000   0.000
    2       -0.000  -0.000   0.000   0.000
    3        0.000  -0.000   0.004   0.004
    4        0.000   0.000  -0.000  -0.000
    5       -0.000  -0.000   0.006   0.006
    6        0.000  -0.000   0.000   0.000
    7        0.000   0.000   0.000   0.000
    8        0.000  -0.000   0.000   0.000
    9        0.000   0.000   0.000   0.000
   10       -0.000  -0.000  -0.000  -0.000
   11       -0.000  -0.000   0.000   0.000
   12        0.000  -0.000  -0.000  -0.000
   13       -0.000  -0.000  -0.000  -0.000
   14        0.000  -0.000  -0.000  -0.000
   15       -0.000  -0.000   0.000   0.000
   16       -0.000  -0.000  -0.000  -0.000
   17       -0.000  -0.000   0.000   0.000
   18       -0.000  -0.000  -0.000  -0.000
   19        0.005   0.006   0.925   0.937
   20       -0.000  -0.000  -0.000  -0.000
   21       -0.000  -0.000   0.000   0.000
   22        0.000  -0.000  -0.000  -0.000
   23       -0.000   0.000   0.000   0.000
   24        0.000  -0.000   0.000   0.000
   25        0.000   0.000   0.000   0.000
   26       -0.000  -0.000  -0.004  -0.005
   27       -0.000  -0.000  -0.000  -0.000
   28        0.000   0.000   0.000   0.000
   29       -0.000  -0.000  -0.000  -0.000
   30       -0.000  -0.000  -0.000  -0.000
   31       -0.000  -0.000   0.000   0.000
   32        0.000  -0.000   0.000   0.000
   33       -0.000  -0.000  -0.000  -0.000
   34       -0.000  -0.000  -0.000  -0.000
   35        0.000   0.000   0.000   0.000
   36       -0.000  -0.000  -0.000  -0.000
   37        0.000   0.000   0.001   0.001
   38       -0.000  -0.000  -0.000  -0.000
   39        0.000   0.000   0.003   0.003
   40       -0.000  -0.000   0.000   0.000
   41        0.000   0.000   0.002   0.002
   42        0.000  -0.000   0.000   0.000
   43       -0.000  -0.000   0.000   0.000
   44       -0.000  -0.000   0.000   0.000
   45       -0.000  -0.000  -0.000  -0.000
   46       -0.000  -0.000  -0.000  -0.000
   47       -0.000  -0.000   0.000   0.000
   48        0.000  -0.000   0.000   0.000
   49       -0.000  -0.000  -0.000  -0.000
   50       -0.000  -0.000  -0.000  -0.000
   51       -0.000   0.000   0.005   0.005
   52        0.000  -0.000  -0.000  -0.000
   53        0.000   0.000   0.000   0.000
   54       -0.000  -0.000  -0.000  -0.000
   55       -0.000  -0.000   0.006   0.006
   56        0.000   0.000   0.000   0.000
   57        0.000   0.000   0.000   0.000
   58        0.000   0.000   0.000   0.000
   59       -0.000  -0.000  -0.000  -0.000
   60       -0.000  -0.000  -0.000  -0.000
   61        0.000  -0.000  -0.000  -0.000
   62        0.000   0.000   0.000   0.000
   63       -0.000  -0.000   0.000   0.000
   64       -0.000  -0.000  -0.000  -0.000
   65       -0.000  -0.000   0.000   0.000
   66       -0.000  -0.000   0.000  -0.000
   67       -0.000  -0.000   0.000  -0.000
   68       -0.000  -0.000   0.000  -0.000
   69       -0.000  -0.000   0.000  -0.000
   70        0.000  -0.000   0.000  -0.000
   71       -0.000  -0.000   0.000  -0.000
   72       -0.000  -0.000   0.000  -0.000
   73       -0.000  -0.000   0.000  -0.000
   74       -0.001  -0.018   0.000  -0.019
   75       -0.000  -0.000   0.000  -0.000
   76       -0.000  -0.000   0.000  -0.000
   77       -0.000  -0.000   0.000  -0.000
   78        0.000  -0.000   0.000  -0.000
   79       -0.000  -0.000   0.000  -0.000
   80       -0.000  -0.000   0.000  -0.000
   81       -0.000  -0.000   0.000  -0.000
   82       -0.000  -0.000   0.000  -0.000
   83       -0.000  -0.000   0.000  -0.000
   84       -0.000  -0.000   0.000  -0.000
   85       -0.000  -0.000   0.000  -0.000
   86       -0.000  -0.000   0.000  -0.000
   87       -0.000  -0.000   0.000  -0.000
   88        0.000  -0.000   0.000  -0.000
   89       -0.000   0.000   0.000   0.000
   90       -0.000   0.000   0.000   0.000
   91       -0.000  -0.000   0.000  -0.000
   92       -0.000  -0.000   0.000  -0.000
   93       -0.000  -0.001   0.000  -0.001
   94        0.000  -0.000   0.000  -0.000
   95       -0.000  -0.000   0.000  -0.000
   96        0.000  -0.000   0.000  -0.000
   97       -0.000  -0.000   0.000  -0.000
   98       -0.000  -0.000   0.000  -0.000
   99       -0.000  -0.000   0.000  -0.000
  100       -0.000  -0.000   0.000  -0.000
  101        0.000  -0.000   0.000  -0.000
  102       -0.000  -0.000   0.000  -0.000
  103        0.000  -0.000   0.000  -0.000
  104       -0.000  -0.001   0.000  -0.001
  105       -0.000  -0.000   0.000  -0.000
  106       -0.000  -0.000   0.000  -0.000
  107        0.000   0.000   0.000   0.000
  108       -0.000  -0.000   0.000  -0.000
  109        0.000  -0.000   0.000  -0.000
  110        0.000   0.000   0.000   0.000
  111       -0.000  -0.000   0.000  -0.000
  112       -0.000  -0.000   0.000  -0.000
  113       -0.000  -0.000   0.000  -0.000
  114       -0.000  -0.000   0.000  -0.000
  115       -0.000  -0.000   0.000  -0.000
  116        0.000   0.000   0.000   0.000
  117        0.000   0.000   0.000   0.000
  118       -0.000  -0.000   0.000  -0.000
  119       -0.000  -0.000   0.000  -0.000
  120        0.000  -0.000   0.000  -0.000
  121        0.000  -0.000   0.000  -0.000
  122        0.000  -0.000   0.000  -0.000
  123        0.000   0.000   0.000   0.000
  124       -0.000  -0.001   0.000  -0.001
  125        0.000  -0.000   0.000  -0.000
  126       -0.000  -0.000   0.000  -0.000
  127       -0.000  -0.000   0.000  -0.000
  128       -0.000  -0.000   0.000  -0.000
  129       -0.000  -0.000   0.000  -0.000
  130       -0.000  -0.000   0.000  -0.000
  131       -0.000  -0.000   0.000  -0.000
  132       -0.000  -0.000   0.000  -0.000
  133       -0.000  -0.000   0.000  -0.000
  134       -0.000  -0.000   0.000  -0.000
  135       -0.000  -0.000   0.000  -0.000
  136       -0.000  -0.000   0.000  -0.000
  137       -0.000  -0.000   0.000  -0.000
  138       -0.000  -0.000   0.000  -0.000
  139       -0.000  -0.000   0.000  -0.000
  140        0.000   0.000   0.000   0.000
  141       -0.000  -0.000   0.000  -0.000
  142       -0.000  -0.005   0.000  -0.005
  143       -0.000  -0.000   0.000  -0.000
  144       -0.000  -0.000   0.000  -0.000
  145       -0.000  -0.000   0.000  -0.000
  146       -0.000  -0.000   0.000  -0.000
  147       -0.000  -0.000   0.000  -0.000
  148        0.000  -0.000   0.000  -0.000
  149       -0.000  -0.000   0.000  -0.000
  150       -0.000  -0.000   0.000  -0.000
  151       -0.000  -0.000   0.000  -0.000
  152        0.000   0.000   0.000   0.000
  153       -0.000  -0.000   0.000  -0.000
  154       -0.000  -0.000   0.000  -0.000
  155       -0.000  -0.000   0.000  -0.000
  156       -0.000  -0.000   0.000  -0.000
  157        0.000  -0.000   0.000  -0.000
  158       -0.000  -0.000   0.000  -0.000
  159       -0.000  -0.000   0.000  -0.000
  160       -0.000  -0.000   0.000  -0.000
  161       -0.000  -0.000   0.000  -0.000
  162       -0.000  -0.000   0.000  -0.000
  163       -0.000  -0.000   0.000  -0.000
  164       -0.000  -0.000   0.000  -0.000
  165       -0.000  -0.000   0.000  -0.000
  166       -0.000  -0.000   0.000  -0.000
  167       -0.000  -0.000   0.000  -0.000
  168       -0.000  -0.000   0.000  -0.000
  169       -0.000  -0.000   0.000  -0.000
  170        0.000  -0.000   0.000  -0.000
  171        0.000   0.000   0.000   0.000
  172        0.000   0.000   0.000   0.000
  173        0.000  -0.000   0.000  -0.000
  174       -0.000  -0.000   0.000  -0.000
  175       -0.000  -0.000   0.000  -0.000
  176       -0.000  -0.000   0.000  -0.000
  177       -0.000  -0.000   0.000  -0.000
  178        0.000   0.000   0.000   0.000
  179       -0.000  -0.000   0.000  -0.000
  180       -0.000  -0.000   0.000  -0.000
  181       -0.000  -0.000   0.000  -0.000
  182       -0.000  -0.000   0.000  -0.000
  183        0.000  -0.000   0.000  -0.000
  184       -0.000   0.003   0.000   0.002
  185        0.000   0.000   0.000   0.000
  186       -0.000  -0.000   0.000  -0.000
  187       -0.000  -0.000   0.000  -0.000
  188       -0.000  -0.000   0.000  -0.000
  189       -0.000  -0.000   0.000  -0.000
  190        0.000  -0.000   0.000  -0.000
  191        0.000   0.000   0.000   0.000
  192       -0.000  -0.000   0.000  -0.000
  193        0.000  -0.000   0.000  -0.000
  194        0.000   0.000   0.000   0.000
  195       -0.000  -0.000   0.000  -0.000
  196       -0.000  -0.000   0.000  -0.000
  197       -0.000  -0.000   0.000  -0.000
  198       -0.000   0.000   0.000   0.000
  199        0.000  -0.000   0.000  -0.000
  200        0.000  -0.000   0.000  -0.000
  201       -0.000  -0.000   0.000  -0.000
  202       -0.000   0.001   0.000   0.001
  203       -0.000  -0.000   0.000  -0.000
  204       -0.000  -0.000   0.000  -0.000
  205       -0.000  -0.000   0.000  -0.000
  206       -0.000  -0.000   0.000  -0.000
  207       -0.000  -0.000   0.000  -0.000
  208       -0.000   0.000   0.000   0.000
  209       -0.000  -0.000   0.000  -0.000
  210       -0.000  -0.000   0.000  -0.000
  211       -0.000  -0.000   0.000  -0.000
  212        0.000  -0.000   0.000  -0.000
  213       -0.000   0.002   0.000   0.002
  214        0.000  -0.000   0.000  -0.000
  215       -0.000  -0.000   0.000  -0.000
  216       -0.000  -0.000   0.000  -0.000
  217       -0.000  -0.000   0.000  -0.000
  218       -0.000   0.000   0.000   0.000
  219       -0.000  -0.000   0.000  -0.000
  220        0.000  -0.000   0.000  -0.000
  221       -0.000  -0.000   0.000  -0.000
  222       -0.000  -0.000   0.000  -0.000
  223       -0.000   0.002   0.000   0.002
  224       -0.000  -0.000   0.000  -0.000
  225       -0.000  -0.000   0.000  -0.000
  226       -0.000  -0.000   0.000  -0.000
  227       -0.000  -0.000   0.000  -0.000
  228       -0.000  -0.000   0.000  -0.000
  229       -0.000  -0.000   0.000  -0.000
  230       -0.000  -0.000   0.000  -0.000
  231       -0.000  -0.000   0.000  -0.000
  232       -0.000  -0.000   0.000  -0.000
  233       -0.000   0.000   0.000   0.000
  234        0.000   0.000   0.000   0.000
  235        0.000   0.000   0.000   0.000
  236       -0.000  -0.000   0.000  -0.000
  237       -0.000  -0.000   0.000  -0.000
  238        0.000   0.000   0.000   0.000
  239        0.000  -0.000   0.000   0.000
  240        0.000  -0.000   0.000  -0.000
  241       -0.000  -0.000   0.000  -0.000
  242        0.000   0.000   0.000   0.000
  243       -0.000  -0.000   0.000  -0.000
  244       -0.000  -0.000   0.000  -0.000
  245       -0.000   0.000   0.000   0.000
  246        0.000   0.000   0.000   0.000
  247       -0.000   0.000   0.000   0.000
  248        0.000  -0.000   0.000  -0.000
  249       -0.000  -0.000   0.000  -0.000
  250        0.000  -0.000   0.000  -0.000
  251       -0.000   0.000   0.000   0.000
  252       -0.000  -0.000   0.000  -0.000
  253        0.000  -0.000   0.000  -0.000
  254        0.000   0.000   0.000   0.000
  255       -0.000  -0.000   0.000  -0.000
  256       -0.000  -0.000   0.000  -0.000
  257       -0.000  -0.000   0.000  -0.000
--------------------------------------------------
tot          0.002  -0.015   0.951   0.938
 

 total amount of memory used by VASP MPI-rank0   291527. kBytes
=======================================================================

   base      :      30000. kBytes
   nonlr-proj:      49492. kBytes
   fftplans  :      27976. kBytes
   grid      :      34041. kBytes
   one-center:       1026. kBytes
   wavefun   :     148992. kBytes
 
  
  
 General timing and accounting informations for this job:
 ========================================================
  
                  Total CPU time used (sec):     1160.143
                            User time (sec):      818.665
                          System time (sec):      341.478
                         Elapsed time (sec):     1191.322
  
                   Maximum memory used (kb):      624936.
                   Average memory used (kb):           0.
  
                          Minor page faults:        91631
                          Major page faults:            0
                 Voluntary context switches:        17579
