LTO                                     
           1
     7.964736   -0.000000   -0.000001
    -0.000000    7.720918   -0.002746
    -0.000000   -0.002741    7.720888
   Ti   O    F 
   8   8  16
Direct configuration=     1
   0.00000002  0.00001112  0.99999271
   0.00000000  0.00000034  0.50000049
   0.00000001  0.49999978  0.00000154
   0.00000003  0.50000803  0.49998964
   0.50000000  0.00000303  0.00000186
   0.49999999  0.00000434  0.49999026
   0.50000000  0.50000575  0.99999084
   0.49999998  0.50000552  0.50000151
   0.50000011  0.24941222  0.00001193
   0.49999998  0.25057895  0.50000115
   0.50000000  0.75057929  0.99999723
   0.50000001  0.74941529  0.50000851
   0.49999998  0.99999280  0.24941630
   0.50000001  0.99998344  0.75058583
   0.50000000  0.49998549  0.25058286
   0.49999999  0.49999414  0.74941992
   0.23434467  0.99998313  0.00001976
   0.23902939  0.00002633  0.49997825
   0.23902938  0.50002569  0.99998044
   0.23434443  0.49998049  0.50001884
   0.76565531  0.99998312  0.00001974
   0.76097059  0.00002639  0.49997822
   0.76097062  0.50002572  0.99998045
   0.76565553  0.49998047  0.50001880
   0.00000001  0.24286843  0.00007491
   0.00000001  0.25712242  0.49992300
   0.99999999  0.75712215  0.99992066
   0.99999998  0.74286870  0.50007181
   0.00000002  0.00006045  0.24287779
   0.99999997  0.99994323  0.75713231
   1.00000000  0.49994239  0.25713346
   0.99999999  0.50006134  0.74287899
