       N       E                     dE             d eps       ncg     rms          rms(c)
DAV:   1    -0.213652038241E+03   -0.21365E+03   -0.62596E-01  2560   0.519E+00    0.667E-02
DAV:   2    -0.213652117878E+03   -0.79637E-04   -0.24943E-05  2560   0.247E-02    0.374E-02
DAV:   3    -0.213652201742E+03   -0.83864E-04   -0.15777E-05  3136   0.282E-02    0.121E-02
DAV:   4    -0.213652205153E+03   -0.34103E-05   -0.40104E-06  2400   0.133E-02    0.174E-03
DAV:   5    -0.213652205311E+03   -0.15797E-06   -0.56510E-07  1472   0.407E-03
   1 F= -.21365221E+03 E0= -.21365221E+03  d E =-.213652E+03  mag=     0.0000
