       N       E                     dE             d eps       ncg     rms          rms(c)
DAV:   1    -0.210306441355E+03   -0.21031E+03   -0.63968E-03 20480   0.519E-01    0.565E-03
DAV:   2    -0.210306441149E+03    0.20575E-06   -0.34135E-06 19296   0.939E-03
   1 F= -.21030644E+03 E0= -.21030644E+03  d E =-.210306E+03  mag=     0.0000
