 vasp.5.4.4.18Apr17-6-g9f103f2a35 (build Jul 16 2019 12:12:28) complex          
  
 executed on             LinuxIFC date 2020.01.06  10:20:05
 running on   96 total cores
 distrk:  each k-point on   96 cores,    1 groups
 distr:  one band on NCORES_PER_BAND=   8 cores,   12 groups


--------------------------------------------------------------------------------------------------------


 INCAR:
 POTCAR:    PAW_PBE Li_sv 10Sep2004               
 POTCAR:    PAW_PBE Ti_pv 07Sep2000               
 POTCAR:    PAW_PBE O 08Apr2002                   
 POTCAR:    PAW_PBE F 08Apr2002                   
 POTCAR:    PAW_PBE Li_sv 10Sep2004               
   VRHFIN =Li: 1s2s2p                                                           
   LEXCH  = PE                                                                  
   EATOM  =   202.7858 eV,   14.9043 Ry                                         
                                                                                
   TITEL  = PAW_PBE Li_sv 10Sep2004                                             
   LULTRA =        F    use ultrasoft PP ?                                      
   IUNSCR =        0    unscreen: 0-lin 1-nonlin 2-no                           
   RPACOR =    0.000    partial core radius                                     
   POMASS =    7.010; ZVAL   =    3.000    mass and valenz                      
   RCORE  =    1.700    outmost cutoff radius                                   
   RWIGS  =    2.050; RWIGS  =    1.085    wigner-seitz radius (au A)           
   ENMAX  =  499.034; ENMIN  =  374.276 eV                                      
   ICORE  =        2    local potential                                         
   LCOR   =        T    correct aug charges                                     
   LPAW   =        T    paw PP                                                  
   EAUG   =  628.945                                                            
   RMAX   =    1.732    core radius for proj-oper                               
   RAUG   =    1.300    factor for augmentation sphere                          
   RDEP   =    1.728    radius for radial grids                                 
   RDEPT  =    1.329    core radius for aug-charge                              
                                                                                
   Atomic configuration                                                         
    4 entries                                                                   
     n  l   j            E        occ.                                          
     1  0  0.50       -51.8549   2.0000                                         
     2  0  0.50        -2.8742   1.0000                                         
     2  1  0.50        -1.3606   0.0000                                         
     3  2  1.50        -1.3606   0.0000                                         
   Description                                                                  
     l       E           TYP  RCUT    TYP  RCUT                                 
     0    -51.8548813     23  1.400                                             
     0     -2.8742052     23  1.700                                             
     1     -1.3605826     23  1.400                                             
     2     -1.3605826     23  1.400                                             
  local pseudopotential read in
  atomic valenz-charges read in
  non local Contribution for L=           0  read in
    real space projection operators read in
  non local Contribution for L=           0  read in
    real space projection operators read in
  non local Contribution for L=           1  read in
    real space projection operators read in
    PAW grid and wavefunctions read in
 
   number of l-projection  operators is LMAX  =           3
   number of lm-projection operators is LMMAX =           5
 
 POTCAR:    PAW_PBE Ti_pv 07Sep2000               
   VRHFIN =Ti: d3 s1                                                            
   LEXCH  = PE                                                                  
   EATOM  =  1042.5995 eV,   76.6289 Ry                                         
                                                                                
   TITEL  = PAW_PBE Ti_pv 07Sep2000                                             
   LULTRA =        F    use ultrasoft PP ?                                      
   IUNSCR =        1    unscreen: 0-lin 1-nonlin 2-no                           
   RPACOR =    2.200    partial core radius                                     
   POMASS =   47.880; ZVAL   =   10.000    mass and valenz                      
   RCORE  =    2.500    outmost cutoff radius                                   
   RWIGS  =    2.500; RWIGS  =    1.323    wigner-seitz radius (au A)           
   ENMAX  =  222.335; ENMIN  =  166.751 eV                                      
   RCLOC  =    1.701    cutoff for local pot                                    
   LCOR   =        T    correct aug charges                                     
   LPAW   =        T    paw PP                                                  
   EAUG   =  482.848                                                            
   DEXC   =    0.000                                                            
   RMAX   =    2.564    core radius for proj-oper                               
   RAUG   =    1.300    factor for augmentation sphere                          
   RDEP   =    2.538    radius for radial grids                                 
   RDEPT  =    1.952    core radius for aug-charge                              
                                                                                
   Atomic configuration                                                         
    8 entries                                                                   
     n  l   j            E        occ.                                          
     1  0  0.50     -4865.3608   2.0000                                         
     2  0  0.50      -533.1368   2.0000                                         
     2  1  1.50      -440.5031   6.0000                                         
     3  0  0.50       -59.3186   2.0000                                         
     3  1  1.50       -35.7012   6.0000                                         
     3  2  2.50        -1.9157   3.0000                                         
     4  0  0.50        -3.7291   1.0000                                         
     4  3  2.50        -1.3606   0.0000                                         
   Description                                                                  
     l       E           TYP  RCUT    TYP  RCUT                                 
     1    -35.7012140     23  2.300                                             
     1     -1.3605826     23  2.300                                             
     2     -1.9156996     23  2.500                                             
     2     -0.4063033     23  2.500                                             
     0     -3.7290856     23  2.500                                             
     0     20.4087390     23  2.500                                             
  local pseudopotential read in
  partial core-charges read in
  partial kinetic energy density read in
  atomic valenz-charges read in
  non local Contribution for L=           1  read in
    real space projection operators read in
  non local Contribution for L=           1  read in
    real space projection operators read in
  non local Contribution for L=           2  read in
    real space projection operators read in
  non local Contribution for L=           2  read in
    real space projection operators read in
  non local Contribution for L=           0  read in
    real space projection operators read in
  non local Contribution for L=           0  read in
    real space projection operators read in
    PAW grid and wavefunctions read in
 
   number of l-projection  operators is LMAX  =           6
   number of lm-projection operators is LMMAX =          18
 
 POTCAR:    PAW_PBE O 08Apr2002                   
   VRHFIN =O: s2p4                                                              
   LEXCH  = PE                                                                  
   EATOM  =   432.3788 eV,   31.7789 Ry                                         
                                                                                
   TITEL  = PAW_PBE O 08Apr2002                                                 
   LULTRA =        F    use ultrasoft PP ?                                      
   IUNSCR =        1    unscreen: 0-lin 1-nonlin 2-no                           
   RPACOR =    1.200    partial core radius                                     
   POMASS =   16.000; ZVAL   =    6.000    mass and valenz                      
   RCORE  =    1.520    outmost cutoff radius                                   
   RWIGS  =    1.550; RWIGS  =    0.820    wigner-seitz radius (au A)           
   ENMAX  =  400.000; ENMIN  =  300.000 eV                                      
   ICORE  =        2    local potential                                         
   LCOR   =        T    correct aug charges                                     
   LPAW   =        T    paw PP                                                  
   EAUG   =  605.392                                                            
   DEXC   =    0.000                                                            
   RMAX   =    1.553    core radius for proj-oper                               
   RAUG   =    1.300    factor for augmentation sphere                          
   RDEP   =    1.550    radius for radial grids                                 
   RDEPT  =    1.329    core radius for aug-charge                              
                                                                                
   Atomic configuration                                                         
    4 entries                                                                   
     n  l   j            E        occ.                                          
     1  0  0.50      -514.6923   2.0000                                         
     2  0  0.50       -23.9615   2.0000                                         
     2  1  0.50        -9.0305   4.0000                                         
     3  2  1.50        -9.5241   0.0000                                         
   Description                                                                  
     l       E           TYP  RCUT    TYP  RCUT                                 
     0    -23.9615318     23  1.200                                             
     0     -9.5240782     23  1.200                                             
     1     -9.0304911     23  1.520                                             
     1      8.1634956     23  1.520                                             
     2     -9.5240782      7  1.500                                             
  local pseudopotential read in
  partial core-charges read in
  partial kinetic energy density read in
  kinetic energy density of atom read in
  atomic valenz-charges read in
  non local Contribution for L=           0  read in
    real space projection operators read in
  non local Contribution for L=           0  read in
    real space projection operators read in
  non local Contribution for L=           1  read in
    real space projection operators read in
  non local Contribution for L=           1  read in
    real space projection operators read in
    PAW grid and wavefunctions read in
 
   number of l-projection  operators is LMAX  =           4
   number of lm-projection operators is LMMAX =           8
 
 POTCAR:    PAW_PBE F 08Apr2002                   
   VRHFIN =F: s2p5                                                              
   LEXCH  = PE                                                                  
   EATOM  =   659.6475 eV,   48.4827 Ry                                         
                                                                                
   TITEL  = PAW_PBE F 08Apr2002                                                 
   LULTRA =        F    use ultrasoft PP ?                                      
   IUNSCR =        1    unscreen: 0-lin 1-nonlin 2-no                           
   RPACOR =    1.200    partial core radius                                     
   POMASS =   18.998; ZVAL   =    7.000    mass and valenz                      
   RCORE  =    1.520    outmost cutoff radius                                   
   RWIGS  =    1.500; RWIGS  =    0.794    wigner-seitz radius (au A)           
   ENMAX  =  400.000; ENMIN  =  300.000 eV                                      
   ICORE  =        2    local potential                                         
   LCOR   =        T    correct aug charges                                     
   LPAW   =        T    paw PP                                                  
   EAUG   =  613.614                                                            
   RMAX   =    1.555    core radius for proj-oper                               
   RAUG   =    1.300    factor for augmentation sphere                          
   RDEP   =    1.539    radius for radial grids                                 
   RDEPT  =    1.299    core radius for aug-charge                              
                                                                                
   Atomic configuration                                                         
    4 entries                                                                   
     n  l   j            E        occ.                                          
     1  0  0.50      -663.3661   2.0000                                         
     2  0  0.50       -29.8995   2.0000                                         
     2  1  0.50       -11.1114   5.0000                                         
     3  2  1.50       -10.8847   0.0000                                         
   Description                                                                  
     l       E           TYP  RCUT    TYP  RCUT                                 
     0    -29.8995018     23  1.200                                             
     0     -9.5240782     23  1.200                                             
     1    -11.1113914     23  1.520                                             
     1      1.3605826     23  1.520                                             
     2    -10.8846608      7  1.500                                             
  local pseudopotential read in
  partial core-charges read in
  partial kinetic energy density read in
  atomic valenz-charges read in
  non local Contribution for L=           0  read in
    real space projection operators read in
  non local Contribution for L=           0  read in
    real space projection operators read in
  non local Contribution for L=           1  read in
    real space projection operators read in
  non local Contribution for L=           1  read in
    real space projection operators read in
    PAW grid and wavefunctions read in
 
   number of l-projection  operators is LMAX  =           4
   number of lm-projection operators is LMMAX =           8
 
 Optimization of the real space projectors (new method)

 maximal supplied QI-value         = 22.11
 optimisation between [QCUT,QGAM] = [ 11.28, 22.77] = [ 35.61,145.23] Ry 
 Optimized for a Real-space Cutoff    1.31 Angstroem

   l    n(q)    QCUT    max X(q) W(low)/X(q) W(high)/X(q)  e(spline) 
   0      9    11.276    10.506    0.19E-04    0.17E-04    0.32E-07
   0      9    11.276     8.367    0.38E-04    0.40E-04    0.65E-07
   1      8    11.276     8.983    0.55E-04    0.98E-04    0.20E-06
 Optimization of the real space projectors (new method)

 maximal supplied QI-value         = 15.12
 optimisation between [QCUT,QGAM] = [ 11.34, 22.83] = [ 36.00,145.93] Ry 
 Optimized for a Real-space Cutoff    1.56 Angstroem

   l    n(q)    QCUT    max X(q) W(low)/X(q) W(high)/X(q)  e(spline) 
   1     10    11.338     4.216    0.27E-04    0.12E-04    0.66E-07
   1     10    11.338     5.422    0.81E-04    0.24E-04    0.19E-06
   2     10    11.338    72.084    0.64E-04    0.21E-03    0.51E-06
   2     10    11.338    65.965    0.63E-04    0.21E-03    0.50E-06
   0     11    11.338    41.531    0.33E-04    0.54E-04    0.13E-06
   0     11    11.338    16.290    0.26E-04    0.41E-04    0.11E-06
 Optimization of the real space projectors (new method)

 maximal supplied QI-value         = 24.76
 optimisation between [QCUT,QGAM] = [ 11.39, 22.77] = [ 36.31,145.25] Ry 
 Optimized for a Real-space Cutoff    1.20 Angstroem

   l    n(q)    QCUT    max X(q) W(low)/X(q) W(high)/X(q)  e(spline) 
   0      8    11.387    20.381    0.89E-04    0.31E-03    0.27E-06
   0      8    11.387    15.268    0.93E-04    0.32E-03    0.29E-06
   1      8    11.387     5.964    0.53E-04    0.28E-03    0.29E-06
   1      8    11.387     5.382    0.37E-04    0.22E-03    0.26E-06
 Optimization of the real space projectors (new method)

 maximal supplied QI-value         = 24.76
 optimisation between [QCUT,QGAM] = [ 11.39, 22.77] = [ 36.31,145.25] Ry 
 Optimized for a Real-space Cutoff    1.20 Angstroem

   l    n(q)    QCUT    max X(q) W(low)/X(q) W(high)/X(q)  e(spline) 
   0      8    11.387    14.049    0.69E-04    0.23E-03    0.18E-06
   0      8    11.387     8.945    0.88E-04    0.30E-03    0.26E-06
   1      8    11.387     7.086    0.62E-04    0.27E-03    0.27E-06
   1      8    11.387     6.747    0.46E-04    0.23E-03    0.25E-06

 ----------------------------------------------------------------------------- 
|                                                                             |
|  ADVICE TO THIS USER RUNNING 'VASP/VAMP'   (HEAR YOUR MASTER'S VOICE ...):  |
|                                                                             |
|      You enforced a specific xc-type in the INCAR file,                     |
|      a different type was found on the POTCAR file                          |
|          I HOPE YOU KNOW, WHAT YOU ARE  DOING                               |
|                                                                             |
 ----------------------------------------------------------------------------- 

  PAW_PBE Li_sv 10Sep2004               :
 energy of atom  1       EATOM= -202.7858
 kinetic energy error for atom=    0.0143 (will be added to EATOM!!)
  PAW_PBE Ti_pv 07Sep2000               :
 energy of atom  2       EATOM=-1042.5995
 kinetic energy error for atom=    0.0024 (will be added to EATOM!!)
  PAW_PBE O 08Apr2002                   :
 energy of atom  3       EATOM= -432.3788
 kinetic energy error for atom=    0.0224 (will be added to EATOM!!)
  PAW_PBE F 08Apr2002                   :
 energy of atom  4       EATOM= -659.6475
 kinetic energy error for atom=    0.0354 (will be added to EATOM!!)
 
 
 POSCAR: config 15                               
  positions in direct lattice
  velocities in cartesian coordinates
 exchange correlation table for  LEXCH =       14
   RHO(1)=    0.500       N(1)  =     2000
   RHO(2)=  100.500       N(2)  =     4000

 VTST: version 3.2, (02/03/18)

 CHAIN: initializing optimizer
 
 OPT: Using VASP QUASI-newton optimizer
 CHAIN: Read ICHAIN            0
 
 POSCAR: config 15                               
  positions in direct lattice
  velocities in cartesian coordinates
 


--------------------------------------------------------------------------------------------------------


 ion  position               nearest neighbor table
   1  0.059  0.875  0.624- 131 1.94  72 1.97 119 1.98 228 2.03  21 2.84  29 2.87   3 2.88
   2  0.995  0.996  0.996- 118 1.86  68 1.88 103 1.89 130 2.01 171 2.03 212 2.04
   3  0.002  0.993  0.490- 119 1.76  67 1.82 172 1.96 193 1.97 213 2.08 131 2.10   1 2.88
   4  0.006  0.496  0.997-  89 1.84 117 1.86 138 1.93 132 1.98 214 2.02 194 2.02
   5  0.993  0.499  0.507-  66 1.83 104 1.84 215 1.90 223 1.99 173 2.02 137 2.03
   6  0.494  0.994  0.000- 101 1.83 121 1.84 140 1.95 133 1.96 216 2.02 174 2.03
   7  0.500  0.008  0.500- 112 1.77 191 1.91 134 1.91 139 1.92 175 1.93 225 2.00
   8  0.504  0.496  0.996-  70 1.88 120 1.88  90 1.89 192 2.03 135 2.04 217 2.05
   9  0.492  0.498  0.495- 102 1.81  69 1.86 224 1.97 218 1.98 136 2.01 176 2.06
  10  0.007  0.003  0.255-  91 1.84  67 1.84 219 1.95 227 1.97 130 1.99 197 2.06
  11  0.001  0.011  0.760-  68 1.77 113 1.82 177 1.95 198 1.98 228 2.07 131 2.09
  12  0.994  0.494  0.251- 107 1.82 122 1.86 137 1.93 132 1.96 220 2.01 178 2.02
  13  0.992  0.498  0.742- 108 1.82  66 1.82 226 1.92 221 1.97 138 2.02 179 2.04
  14  0.506  0.009  0.251- 114 1.82  92 1.84 133 1.92 139 1.97 195 2.00 231 2.05
  15  0.493  0.005  0.752- 105 1.81 115 1.83 140 1.93 134 1.99 232 2.01 180 2.03
  16  0.493  0.496  0.257-  69 1.82 106 1.84 229 1.96 222 2.00 135 2.02 181 2.04
  17  0.501  0.504  0.759-  70 1.80 116 1.87 182 1.95 196 1.97 230 2.04 136 2.07
  18  0.996  0.258  0.001- 117 1.82 110 1.87 141 1.96 146 1.97 183 2.01 212 2.02
  19  0.999  0.247  0.491-  74 1.77 213 1.91 202 1.93 184 1.94 223 1.94 142 2.02
  20  0.999  0.758  0.005- 118 1.81  71 1.85 203 1.95 185 1.97 148 2.03 214 2.05
  21  0.998  0.753  0.501-  72 1.97 119 1.98 147 1.99 204 2.02 186 2.02 215 2.03   1 2.84
  22  0.495  0.258  0.001- 120 1.80 109 1.84 150 1.96 143 1.97 187 2.03 216 2.07
  23  0.508  0.245  0.499-  93 1.80 112 1.89 144 1.92 149 1.94 224 1.96 199 2.00
  24  0.507  0.756  0.999-  94 1.83 121 1.84 152 1.94 145 1.99 217 2.01 200 2.02
  25  0.508  0.752  0.509-  73 1.80  95 1.82 218 1.95 225 1.96 201 2.02 151 2.08
  26  0.000  0.258  0.255- 122 1.79  74 1.88 209 1.95 188 1.95 141 1.99 219 2.02
  27  0.007  0.244  0.747- 113 1.81  96 1.82 142 1.96 146 1.97 226 2.02 210 2.05
  28  0.008  0.748  0.242-  71 1.81  97 1.84 220 1.95 227 1.98 147 2.03 211 2.07
  29  0.993  0.749  0.743-  72 1.81 111 1.83 221 1.95 228 2.00 148 2.02 189 2.04   1 2.87
  30  0.508  0.242  0.252-  98 1.82 114 1.82 143 1.93 149 1.96 229 2.01 205 2.02
  31  0.507  0.243  0.750-  99 1.84 115 1.85 150 1.93 144 1.97 230 2.01 206 2.02
  32  0.507  0.751  0.253- 100 1.79 151 1.92 231 1.93 222 1.94 145 1.94 207 2.01
  33  0.502  0.742  0.744- 116 1.81  73 1.84 190 1.93 208 1.97 152 2.03 232 2.06
  34  0.256  0.999  0.006-  75 1.84 101 1.86 246 1.93 233 1.96 171 2.01 157 2.04
  35  0.249  0.995  0.506- 128 1.82  76 1.85 172 1.94 191 1.98 156 2.02 234 2.02
  36  0.244  0.508  0.998- 123 1.82  89 1.84 159 1.93 153 1.97 192 2.02 245 2.04
  37  0.254  0.494  0.507-  77 1.85 102 1.87 127 1.88 173 2.03 235 2.04 158 2.04
  38  0.757  0.000  0.994- 103 1.79  81 1.87 236 1.95 249 1.95 174 2.04 154 2.04
  39  0.753  0.006  0.494-  80 1.83 124 1.84 193 1.93 175 1.99 155 2.00 250 2.01
  40  0.742  0.500  0.005-  90 1.80  78 1.87 237 1.95 247 1.96 161 2.03 194 2.05
  41  0.755  0.496  0.505-  79 1.84 104 1.85 248 1.95 238 1.97 176 2.01 160 2.03
  42  0.245  0.003  0.244-  75 1.83  91 1.84 239 1.93 252 1.96 156 2.04 195 2.06
  43  0.258  0.999  0.744- 105 1.83  76 1.84 253 1.93 240 1.96 157 2.02 177 2.03
  44  0.255  0.492  0.252- 129 1.83 106 1.83 158 1.93 153 1.97 241 2.04 178 2.04
  45  0.247  0.507  0.741-  77 1.79 125 1.83 179 1.95 196 1.97 251 2.03 159 2.06
  46  0.745  0.000  0.256-  92 1.85  80 1.86 256 1.94 242 1.96 197 2.00 154 2.00
  47  0.749  0.006  0.756-  81 1.82 126 1.83 180 1.94 198 1.98 257 2.03 155 2.05
  48  0.756  0.498  0.242-  78 1.81 107 1.86 243 1.95 254 1.96 181 2.02 160 2.05
  49  0.757  0.498  0.742- 108 1.83  79 1.83 255 1.93 244 1.98 182 2.03 161 2.04
  50  0.258  0.252  0.006- 109 1.83  82 1.86 245 1.93 233 1.97 168 2.02 183 2.05
  51  0.253  0.257  0.506- 127 1.80  83 1.85 199 1.96 184 2.01 167 2.03 234 2.04
  52  0.253  0.743  0.994- 123 1.82  86 1.83 200 1.94 185 1.97 162 2.03 246 2.04
  53  0.251  0.756  0.492-  85 1.83 128 1.88 186 1.92 201 1.95 235 2.00 163 2.06
  54  0.757  0.251  0.007- 110 1.81  84 1.85 236 1.94 247 1.94 170 2.03 187 2.03
  55  0.744  0.241  0.498- 124 1.81  93 1.84 169 1.93 164 1.96 248 2.01 202 2.03
  56  0.742  0.749  0.993-  94 1.82  88 1.83 237 1.94 249 1.95 203 2.02 165 2.04
  57  0.742  0.751  0.494-  95 1.83  87 1.86 250 1.95 204 1.96 238 1.96 166 2.03
  58  0.251  0.258  0.244- 129 1.82  82 1.83 205 1.96 188 1.99 167 2.03 239 2.03
  59  0.245  0.252  0.744-  83 1.83  96 1.85 251 1.93 240 1.98 168 2.03 206 2.04
  60  0.245  0.749  0.256-  97 1.83  85 1.84 241 1.93 252 1.97 162 2.03 207 2.06
  61  0.249  0.742  0.758- 125 1.81  86 1.84 189 1.94 208 1.97 163 2.04 253 2.05
  62  0.743  0.251  0.242-  84 1.80  98 1.83 254 1.93 242 1.95 209 2.04 169 2.06
  63  0.745  0.242  0.751- 126 1.82  99 1.84 170 1.94 164 1.99 210 2.01 255 2.04
  64  0.746  0.749  0.257-  87 1.81 100 1.90 243 1.94 256 1.95 211 1.98 165 2.03
  65  0.758  0.750  0.756- 111 1.82  88 1.84 257 1.93 244 1.97 190 2.03 166 2.04
  66  0.008  0.497  0.625-  13 1.82   5 1.83
  67  0.992  0.006  0.373-   3 1.82  10 1.84
  68  0.996  0.005  0.874-  11 1.77   2 1.88
  69  0.499  0.492  0.375-  16 1.82   9 1.86
  70  0.494  0.496  0.875-  17 1.80   8 1.88
  71  0.004  0.745  0.124-  28 1.81  20 1.85
  72  0.013  0.756  0.627-  29 1.81  21 1.97   1 1.97
  73  0.508  0.751  0.625-  25 1.80  33 1.84
  74  0.994  0.244  0.376-  19 1.77  26 1.88
  75  0.253  0.005  0.125-  42 1.83  34 1.84
  76  0.248  0.005  0.626-  43 1.84  35 1.85
  77  0.238  0.497  0.626-  45 1.79  37 1.85
  78  0.750  0.490  0.125-  48 1.81  40 1.87
  79  0.745  0.492  0.624-  49 1.83  41 1.84
  80  0.755  0.001  0.376-  39 1.83  46 1.86
  81  0.750  1.000  0.873-  47 1.82  38 1.87
  82  0.246  0.248  0.126-  58 1.83  50 1.86
  83  0.251  0.249  0.626-  59 1.83  51 1.85
  84  0.742  0.259  0.126-  62 1.80  54 1.85
  85  0.261  0.750  0.374-  53 1.83  60 1.84
  86  0.259  0.755  0.875-  52 1.83  61 1.84
  87  0.757  0.749  0.374-  64 1.81  57 1.86
  88  0.755  0.751  0.875-  56 1.83  65 1.84
  89  0.125  0.505  0.994-   4 1.84  36 1.84
  90  0.626  0.508  0.998-  40 1.80   8 1.89
  91  0.126  0.005  0.253-  10 1.84  42 1.84
  92  0.625  0.003  0.253-  14 1.84  46 1.85
  93  0.625  0.247  0.494-  23 1.80  55 1.84
  94  0.625  0.741  0.996-  56 1.82  24 1.83
  95  0.624  0.753  0.490-  25 1.82  57 1.83
  96  0.125  0.251  0.751-  27 1.82  59 1.85
  97  0.126  0.750  0.256-  60 1.83  28 1.84
  98  0.626  0.244  0.262-  30 1.82  62 1.83
  99  0.626  0.252  0.749-  31 1.84  63 1.84
 100  0.623  0.752  0.256-  32 1.79  64 1.90
 101  0.376  0.999  0.995-   6 1.83  34 1.86
 102  0.375  0.498  0.505-   9 1.81  37 1.87
 103  0.873  0.000  0.003-  38 1.79   2 1.89
 104  0.875  0.491  0.500-   5 1.84  41 1.85
 105  0.376  0.996  0.752-  15 1.81  43 1.83
 106  0.374  0.495  0.248-  44 1.83  16 1.84
 107  0.876  0.496  0.251-  12 1.82  48 1.86
 108  0.875  0.507  0.746-  13 1.82  49 1.83
 109  0.376  0.249  0.004-  50 1.83  22 1.84
 110  0.875  0.250  0.006-  54 1.81  18 1.87
 111  0.875  0.745  0.742-  65 1.82  29 1.83
 112  0.500  0.122  0.493-   7 1.77  23 1.89
 113  0.995  0.127  0.741-  27 1.81  11 1.82
 114  0.494  0.125  0.263-  14 1.82  30 1.82
 115  0.501  0.124  0.750-  15 1.83  31 1.85
 116  0.501  0.625  0.752-  33 1.81  17 1.87
 117  0.002  0.375  0.002-  18 1.82   4 1.86
 118  0.003  0.875  0.001-  20 1.81   2 1.86
 119  0.016  0.880  0.503-   3 1.76   1 1.98  21 1.98
 120  0.504  0.374  0.008-  22 1.80   8 1.88
 121  0.506  0.875  0.005-  24 1.84   6 1.84
 122  0.008  0.374  0.249-  26 1.79  12 1.86
 123  0.256  0.626  0.000-  52 1.82  36 1.82
 124  0.754  0.125  0.506-  55 1.81  39 1.84
 125  0.249  0.625  0.752-  61 1.81  45 1.83
 126  0.753  0.124  0.743-  63 1.82  47 1.83
 127  0.245  0.373  0.495-  51 1.80  37 1.88
 128  0.241  0.877  0.502-  35 1.82  53 1.88
 129  0.241  0.375  0.255-  58 1.82  44 1.83
 130  0.003  0.003  0.126-  10 1.99   2 2.01
 131  0.015  0.993  0.626-   1 1.94  11 2.09   3 2.10
 132  0.001  0.508  0.125-  12 1.96   4 1.98
 133  0.498  0.008  0.127-  14 1.92   6 1.96
 134  0.502  0.997  0.623-   7 1.91  15 1.99
 135  0.503  0.508  0.128-  16 2.02   8 2.04
 136  0.508  0.502  0.625-   9 2.01  17 2.07
 137  0.003  0.497  0.376-  12 1.93   5 2.03
 138  0.995  0.500  0.873-   4 1.93  13 2.02
 139  0.499  0.988  0.377-   7 1.92  14 1.97
 140  0.512  0.998  0.875-  15 1.93   6 1.95
 141  0.008  0.247  0.127-  18 1.96  26 1.99
 142  0.001  0.261  0.621-  27 1.96  19 2.02
 143  0.509  0.238  0.127-  30 1.93  22 1.97
 144  0.498  0.246  0.623-  23 1.92  31 1.97
 145  0.503  0.744  0.127-  32 1.94  24 1.99
 146  0.995  0.248  0.874-  18 1.97  27 1.97
 147  0.988  0.753  0.372-  21 1.99  28 2.03
 148  0.995  0.751  0.874-  29 2.02  20 2.03
 149  0.492  0.264  0.376-  23 1.94  30 1.96
 150  0.500  0.253  0.875-  31 1.93  22 1.96
 151  0.487  0.756  0.376-  32 1.92  25 2.08
 152  0.491  0.754  0.874-  24 1.94  33 2.03
 153  0.244  0.497  0.125-  44 1.97  36 1.97
 154  0.746  0.001  0.126-  46 2.00  38 2.04
 155  0.745  0.994  0.623-  39 2.00  47 2.05
 156  0.256  0.000  0.376-  35 2.02  42 2.04
 157  0.247  0.994  0.874-  43 2.02  34 2.04
 158  0.248  0.510  0.375-  44 1.93  37 2.04
 159  0.260  0.497  0.874-  36 1.93  45 2.06
 160  0.748  0.507  0.375-  41 2.03  48 2.05
 161  0.753  0.506  0.874-  40 2.03  49 2.04
 162  0.247  0.753  0.125-  60 2.03  52 2.03
 163  0.241  0.752  0.626-  61 2.04  53 2.06
 164  0.751  0.261  0.623-  55 1.96  63 1.99
 165  0.747  0.750  0.125-  64 2.03  56 2.04
 166  0.738  0.749  0.625-  57 2.03  65 2.04
 167  0.253  0.245  0.375-  51 2.03  58 2.03
 168  0.253  0.253  0.875-  50 2.02  59 2.03
 169  0.763  0.242  0.374-  55 1.93  62 2.06
 170  0.754  0.244  0.876-  63 1.94  54 2.03
 171  0.126  0.004  1.000-  34 2.01   2 2.03
 172  0.126  0.021  0.493-  35 1.94   3 1.96
 173  0.123  0.506  0.492-   5 2.02  37 2.03
 174  0.625  0.004  0.005-   6 2.03  38 2.04
 175  0.625  0.995  0.499-   7 1.93  39 1.99
 176  0.625  0.498  0.497-  41 2.01   9 2.06
 177  0.127  0.002  0.753-  11 1.95  43 2.03
 178  0.124  0.509  0.250-  12 2.02  44 2.04
 179  0.123  0.494  0.763-  45 1.95  13 2.04
 180  0.624  0.996  0.744-  47 1.94  15 2.03
 181  0.625  0.501  0.251-  48 2.02  16 2.04
 182  0.626  0.494  0.756-  17 1.95  49 2.03
 183  0.125  0.249  0.994-  18 2.01  50 2.05
 184  0.124  0.237  0.498-  19 1.94  51 2.01
 185  0.125  0.745  0.994-  52 1.97  20 1.97
 186  0.128  0.740  0.489-  53 1.92  21 2.02
 187  0.626  0.247  0.994-  22 2.03  54 2.03
 188  0.125  0.236  0.257-  26 1.95  58 1.99
 189  0.124  0.753  0.760-  61 1.94  29 2.04
 190  0.626  0.754  0.759-  33 1.93  65 2.03
 191  0.377  0.996  0.501-   7 1.91  35 1.98
 192  0.373  0.495  0.008-  36 2.02   8 2.03
 193  0.876  0.995  0.512-  39 1.93   3 1.97
 194  0.875  0.497  0.000-   4 2.02  40 2.05
 195  0.378  0.995  0.254-  14 2.00  42 2.06
 196  0.375  0.498  0.741-  17 1.97  45 1.97
 197  0.874  0.997  0.243-  46 2.00  10 2.06
 198  0.876  0.992  0.739-  11 1.98  47 1.98
 199  0.379  0.252  0.499-  51 1.96  23 2.00
 200  0.377  0.758  0.009-  52 1.94  24 2.02
 201  0.377  0.753  0.509-  53 1.95  25 2.02
 202  0.875  0.258  0.505-  19 1.93  55 2.03
 203  0.872  0.756  0.005-  20 1.95  56 2.02
 204  0.868  0.754  0.512-  57 1.96  21 2.02
 205  0.378  0.258  0.246-  58 1.96  30 2.02
 206  0.377  0.250  0.751-  31 2.02  59 2.04
 207  0.377  0.751  0.242-  32 2.01  60 2.06
 208  0.375  0.756  0.742-  61 1.97  33 1.97
 209  0.874  0.257  0.244-  26 1.95  62 2.04
 210  0.875  0.255  0.746-  63 2.01  27 2.05
 211  0.874  0.749  0.243-  64 1.98  28 2.07
 212  0.002  0.127  0.003-  18 2.02   2 2.04
 213  0.989  0.126  0.513-  19 1.91   3 2.08
 214  0.993  0.626  0.994-   4 2.02  20 2.05
 215  0.991  0.622  0.496-   5 1.90  21 2.03
 216  0.503  0.125  0.996-   6 2.02  22 2.07
 217  0.489  0.627  0.999-  24 2.01   8 2.05
 218  0.500  0.626  0.495-  25 1.95   9 1.98
 219  0.990  0.128  0.244-  10 1.95  26 2.02
 220  0.997  0.624  0.257-  28 1.95  12 2.01
 221  0.010  0.624  0.752-  29 1.95  13 1.97
 222  0.499  0.626  0.257-  32 1.94  16 2.00
 223  0.010  0.372  0.495-  19 1.94   5 1.99
 224  0.502  0.371  0.509-  23 1.96   9 1.97
 225  0.498  0.878  0.500-  25 1.96   7 2.00
 226  0.996  0.374  0.754-  13 1.92  27 2.02
 227  0.998  0.876  0.248-  10 1.97  28 1.98
 228  0.008  0.877  0.745-  29 2.00   1 2.03  11 2.07
 229  0.506  0.372  0.239-  16 1.96  30 2.01
 230  0.497  0.373  0.744-  31 2.01  17 2.04
 231  0.499  0.876  0.245-  32 1.93  14 2.05
 232  0.503  0.875  0.751-  15 2.01  33 2.06
 233  0.248  0.125  0.992-  34 1.96  50 1.97
 234  0.260  0.125  0.496-  35 2.02  51 2.04
 235  0.255  0.627  0.504-  53 2.00  37 2.04
 236  0.746  0.126  0.004-  54 1.94  38 1.95
 237  0.762  0.625  0.005-  56 1.94  40 1.95
 238  0.750  0.624  0.503-  57 1.96  41 1.97
 239  0.262  0.127  0.255-  42 1.93  58 2.03
 240  0.252  0.125  0.759-  43 1.96  59 1.98
 241  0.253  0.624  0.244-  60 1.93  44 2.04
 242  0.761  0.126  0.246-  62 1.95  46 1.96
 243  0.749  0.625  0.245-  64 1.94  48 1.95
 244  0.740  0.625  0.746-  65 1.97  49 1.98
 245  0.247  0.376  0.999-  50 1.93  36 2.04
 246  0.244  0.874  0.004-  34 1.93  52 2.04
 247  0.747  0.375  0.987-  54 1.94  40 1.96
 248  0.747  0.371  0.488-  41 1.95  55 2.01
 249  0.743  0.875  0.005-  56 1.95  38 1.95
 250  0.750  0.876  0.502-  57 1.95  39 2.01
 251  0.253  0.376  0.755-  59 1.93  45 2.03
 252  0.253  0.876  0.249-  42 1.96  60 1.97
 253  0.244  0.874  0.745-  43 1.93  61 2.05
 254  0.746  0.374  0.265-  62 1.93  48 1.96
 255  0.754  0.373  0.759-  49 1.93  63 2.04
 256  0.752  0.875  0.246-  46 1.94  64 1.95
 257  0.751  0.875  0.745-  65 1.93  47 2.03
 

IMPORTANT INFORMATION: All symmetrisations will be switched off!
NOSYMM: (Re-)initialisation of all symmetry stuff for point group C_1.

 
 
 KPOINTS: Title                                   

Automatic generation of k-mesh.
Space group operators:
 irot       det(A)        alpha          n_x          n_y          n_z        tau_x        tau_y        tau_z
    1     1.000000     0.000001     1.000000     0.000000     0.000000     0.000000     0.000000     0.000000
 
 Subroutine IBZKPT returns following result:
 ===========================================
 
 Found      4 irreducible k-points:
 
 Following reciprocal coordinates:
            Coordinates               Weight
  0.250000  0.250000  0.250000      2.000000
 -0.250000  0.250000  0.250000      2.000000
  0.250000 -0.250000  0.250000      2.000000
 -0.250000 -0.250000  0.250000      2.000000
 
 Following cartesian coordinates:
            Coordinates               Weight
  0.016206  0.016206  0.016206      2.000000
 -0.016206  0.016206  0.016206      2.000000
  0.016206 -0.016206  0.016206      2.000000
 -0.016206 -0.016206  0.016206      2.000000
 


--------------------------------------------------------------------------------------------------------




 Dimension of arrays:
   k-points           NKPTS =      4   k-points in BZ     NKDIM =      4   number of bands    NBANDS=   1164
   number of dos      NEDOS =   3001   number of ions     NIONS =    257
   non local maximal  LDIM  =      6   non local SUM 2l+1 LMDIM =     18
   total plane-waves  NPLWV = ******
   max r-space proj   IRMAX =   7595   max aug-charges    IRDMAX= 146383
   dimension x,y,z NGX =   120 NGY =  120 NGZ =  120
   dimension x,y,z NGXF=   240 NGYF=  240 NGZF=  240
   support grid    NGXF=   480 NGYF=  480 NGZF=  480
   ions per type =               1  64  64 128
   NGX,Y,Z   is equivalent  to a cutoff of  12.93, 12.93, 12.93 a.u.
   NGXF,Y,Z  is equivalent  to a cutoff of  25.86, 25.86, 25.86 a.u.

 SYSTEM =  LTO                                     
 POSCAR =  config 15                               

 Startparameter for this run:
   NWRITE =      2    write-flag & timer
   PREC   = accura    normal or accurate (medium, high low for compatibility)
   ISTART =      1    job   : 0-new  1-cont  2-samecut
   ICHARG =      0    charge: 1-file 2-atom 10-const
   ISPIN  =      2    spin polarized calculation?
   LNONCOLLINEAR =      F non collinear calculations
   LSORBIT =      F    spin-orbit coupling
   INIWAV =      1    electr: 0-lowe 1-rand  2-diag
   LASPH  =      T    aspherical Exc in radial PAW
   METAGGA=      F    non-selfconsistent MetaGGA calc.

 Electronic Relaxation 1
   ENCUT  =  500.0 eV  36.75 Ry    6.06 a.u.  28.13 28.13 28.13*2*pi/ulx,y,z
   ENINI  =  500.0     initial cutoff
   ENAUG  =  628.9 eV  augmentation charge cutoff
   NELM   =     60;   NELMIN=  2; NELMDL=  0     # of ELM steps 
   EDIFF  = 0.1E-05   stopping-criterion for ELM
   LREAL  =      T    real-space projection
   NLSPLINE    = F    spline interpolate recip. space projectors
   LCOMPAT=      F    compatible to vasp.4.4
   GGA_COMPAT  = T    GGA compatible to vasp.4.4-vasp.4.6
   LMAXPAW     = -100 max onsite density
   LMAXMIX     =    4 max onsite mixed and CHGCAR
   VOSKOWN=      0    Vosko Wilk Nusair interpolation
   ROPT   =   -0.00010  -0.00010  -0.00010  -0.00010
 Ionic relaxation
   EDIFFG = -.5E-01   stopping-criterion for IOM
   NSW    =    100    number of steps for IOM
   NBLOCK =      1;   KBLOCK =    100    inner block; outer block 
   IBRION =      1    ionic relax: 0-MD 1-quasi-New 2-CG
   NFREE  =      0    steps in history (QN), initial steepest desc. (CG)
   ISIF   =      2    stress and relaxation
   IWAVPR =     11    prediction:  0-non 1-charg 2-wave 3-comb
   ISYM   =      0    0-nonsym 1-usesym 2-fastsym
   LCORR  =      T    Harris-Foulkes like correction to forces

   POTIM  = 0.5000    time-step for ionic-motion
   TEIN   =    0.0    initial temperature
   TEBEG  =    0.0;   TEEND  =   0.0 temperature during run
   SMASS  =  -3.00    Nose mass-parameter (am)
   estimated Nose-frequenzy (Omega)   =  0.10E-29 period in steps =****** mass=  -0.544E-26a.u.
   SCALEE = 1.0000    scale energy and forces
   NPACO  =    256;   APACO  = 16.0  distance and # of slots for P.C.
   PSTRESS=    0.0 pullay stress

  Mass of Ions in am
   POMASS =   7.01 47.88 16.00 19.00
  Ionic Valenz
   ZVAL   =   3.00 10.00  6.00  7.00
  Atomic Wigner-Seitz radii
   RWIGS  =  -1.00 -1.00 -1.00 -1.00
  virtual crystal weights 
   VCA    =   1.00  1.00  1.00  1.00
   NELECT =    1923.0000    total number of electrons
   NUPDOWN=       1.0000    fix difference up-down

 DOS related values:
   EMIN   =  10.00;   EMAX   =-10.00  energy-range for DOS
   EFERMI =   0.00
   ISMEAR =     0;   SIGMA  =   0.01  broadening in eV -4-tet -1-fermi 0-gaus

 Electronic relaxation 2 (details)
   IALGO  =     38    algorithm
   LDIAG  =      T    sub-space diagonalisation (order eigenvalues)
   LSUBROT=      F    optimize rotation matrix (better conditioning)
   TURBO    =      0    0=normal 1=particle mesh
   IRESTART =      0    0=no restart 2=restart with 2 vectors
   NREBOOT  =      0    no. of reboots
   NMIN     =      0    reboot dimension
   EREF     =   0.00    reference energy to select bands
   IMIX   =      4    mixing-type and parameters
     AMIX     =   0.40;   BMIX     =  1.00
     AMIX_MAG =   1.60;   BMIX_MAG =  1.00
     AMIN     =   0.10
     WC   =   100.;   INIMIX=   1;  MIXPRE=   1;  MAXMIX= -45

 Intra band minimization:
   WEIMIN = 0.0010     energy-eigenvalue tresh-hold
   EBREAK =  0.21E-09  absolut break condition
   DEPER  =   0.30     relativ break condition  

   TIME   =   0.40     timestep for ELM

  volume/ion in A,a.u.               =      14.28        96.39
  Fermi-wavevector in a.u.,A,eV,Ry     =   1.319690  2.493853 23.695660  1.741582
  Thomas-Fermi vector in A             =   2.449570
 
 Write flags
   LWAVE        =      T    write WAVECAR
   LDOWNSAMPLE  =      F    k-point downsampling of WAVECAR
   LCHARG       =      T    write CHGCAR
   LVTOT        =      F    write LOCPOT, total local potential
   LVHAR        =      F    write LOCPOT, Hartree potential only
   LELF         =      F    write electronic localiz. function (ELF)
   LORBIT       =     11    0 simple, 1 ext, 2 COOP (PROOUT), +10 PAW based schemes


 Dipole corrections
   LMONO  =      F    monopole corrections only (constant potential shift)
   LDIPOL =      F    correct potential (dipole corrections)
   IDIPOL =      0    1-x, 2-y, 3-z, 4-all directions 
   EPSILON=  1.0000000 bulk dielectric constant

 LDA+U is selected, type is set to LDAUTYPE =  2
   angular momentum for each species LDAUL =    -1    2   -1   -1
   U (eV)           for each species LDAUU =   0.0  4.2  0.0  0.0
   J (eV)           for each species LDAUJ =   0.0  0.0  0.0  0.0
 Exchange correlation treatment:
   GGA     =    PS    GGA type
   LEXCH   =    14    internal setting for exchange type
   VOSKOWN=      0    Vosko Wilk Nusair interpolation
   LHFCALC =     F    Hartree Fock is set to
   LHFONE  =     F    Hartree Fock one center treatment
   AEXX    =    0.0000 exact exchange contribution

 Linear response parameters
   LEPSILON=     F    determine dielectric tensor
   LRPA    =     F    only Hartree local field effects (RPA)
   LNABLA  =     F    use nabla operator in PAW spheres
   LVEL    =     F    velocity operator in full k-point grid
   LINTERFAST=   F  fast interpolation
   KINTER  =     0    interpolate to denser k-point grid
   CSHIFT  =0.1000    complex shift for real part using Kramers Kronig
   OMEGAMAX=  -1.0    maximum frequency
   DEG_THRESHOLD= 0.2000000E-02 threshold for treating states as degnerate
   RTIME   =   -0.100 relaxation time in fs
  (WPLASMAI=    0.000 imaginary part of plasma frequency in eV, 0.658/RTIME)
   DFIELD  = 0.0000000 0.0000000 0.0000000 field for delta impulse in time
 
 Orbital magnetization related:
   ORBITALMAG=     F  switch on orbital magnetization
   LCHIMAG   =     F  perturbation theory with respect to B field
   DQ        =  0.001000  dq finite difference perturbation B field
   LLRAUG    =     F  two centre corrections for induced B field



--------------------------------------------------------------------------------------------------------


 quasi-Newton-method for relaxation of ions
 charge density and potential will be updated during run
 spin polarized calculation
 Variant of blocked Davidson
 Davidson routine will perform the subspace rotation
 perform sub-space diagonalisation
    after iterative eigenvector-optimisation
 modified Broyden-mixing scheme, WC =      100.0
 initial mixing is a Kerker type mixing with AMIX =  0.4000 and BMIX =      1.0000
 Hartree-type preconditioning will be used
 using additional bands          202
 real space projection scheme for non local part
 use partial core corrections
 calculate Harris-corrections to forces 
   (improved forces if not selfconsistent)
 use gradient corrections 
 use of overlap-Matrix (Vanderbilt PP)
 Gauss-broadening in eV      SIGMA  =   0.01


--------------------------------------------------------------------------------------------------------


  energy-cutoff  :      500.00
  volume of cell :     3671.03
      direct lattice vectors                 reciprocal lattice vectors
    15.426331000  0.000000000  0.000000000     0.064824228  0.000000000  0.000000000
     0.000000000 15.426331000  0.000000000     0.000000000  0.064824228  0.000000000
     0.000000000  0.000000000 15.426331000     0.000000000  0.000000000  0.064824228

  length of vectors
    15.426331000 15.426331000 15.426331000     0.064824228  0.064824228  0.064824228


 
 old parameters found on file WAVECAR:
  energy-cutoff  :      500.00
  volume of cell :     3671.03
      direct lattice vectors                 reciprocal lattice vectors
    15.426331000  0.000000000  0.000000000     0.064824228  0.000000000  0.000000000
     0.000000000 15.426331000  0.000000000     0.000000000  0.064824228  0.000000000
     0.000000000  0.000000000 15.426331000     0.000000000  0.000000000  0.064824228

  length of vectors

 
 k-points in units of 2pi/SCALE and weight: Title                                   
   0.01620606  0.01620606  0.01620606       0.250
  -0.01620606  0.01620606  0.01620606       0.250
   0.01620606 -0.01620606  0.01620606       0.250
  -0.01620606 -0.01620606  0.01620606       0.250
 
 k-points in reciprocal lattice and weights: Title                                   
   0.25000000  0.25000000  0.25000000       0.250
  -0.25000000  0.25000000  0.25000000       0.250
   0.25000000 -0.25000000  0.25000000       0.250
  -0.25000000 -0.25000000  0.25000000       0.250
 
 position of ions in fractional coordinates (direct lattice) 
   0.05898293  0.87539383  0.62399224
   0.99504713  0.99550409  0.99614613
   0.00208031  0.99303032  0.49021826
   0.00597169  0.49576249  0.99724888
   0.99349102  0.49931647  0.50720186
   0.49442464  0.99416964  0.00014032
   0.50036772  0.00779283  0.49951190
   0.50422066  0.49551910  0.99618283
   0.49165224  0.49796763  0.49543365
   0.00681631  0.00308115  0.25481550
   0.00063075  0.01067292  0.75954842
   0.99369321  0.49351864  0.25136945
   0.99242593  0.49802674  0.74167130
   0.50641430  0.00855925  0.25090587
   0.49321822  0.00519401  0.75155597
   0.49283472  0.49641194  0.25743423
   0.50067453  0.50438768  0.75862301
   0.99576800  0.25768302  0.00123641
   0.99895735  0.24691296  0.49125436
   0.99861671  0.75816863  0.00529004
   0.99815302  0.75286695  0.50077285
   0.49526936  0.25818261  0.00138461
   0.50848140  0.24468053  0.49887695
   0.50732938  0.75641644  0.99872963
   0.50771554  0.75163594  0.50869410
   0.00001190  0.25797315  0.25525610
   0.00708964  0.24374229  0.74720893
   0.00767300  0.74843930  0.24169476
   0.99307546  0.74867294  0.74275658
   0.50842454  0.24184502  0.25171189
   0.50732382  0.24314186  0.75049688
   0.50702013  0.75126457  0.25268534
   0.50213298  0.74215878  0.74365354
   0.25640613  0.99886914  0.00635246
   0.24876325  0.99490682  0.50626162
   0.24378588  0.50821312  0.99754213
   0.25359191  0.49438102  0.50690484
   0.75730623  0.00022406  0.99436982
   0.75316914  0.00615158  0.49449438
   0.74180762  0.50042233  0.00477785
   0.75523160  0.49608742  0.50523712
   0.24490220  0.00296263  0.24383659
   0.25772251  0.99880107  0.74441450
   0.25518830  0.49227276  0.25175292
   0.24693853  0.50670992  0.74142072
   0.74531829  0.00043280  0.25594112
   0.74915842  0.00637665  0.75583969
   0.75564770  0.49829849  0.24242502
   0.75687854  0.49768329  0.74229897
   0.25751762  0.25160160  0.00609789
   0.25271444  0.25703695  0.50568875
   0.25283635  0.74301002  0.99371160
   0.25126705  0.75593806  0.49244003
   0.75748845  0.25114716  0.00723649
   0.74433072  0.24147070  0.49777875
   0.74228125  0.74908564  0.99313089
   0.74233773  0.75056288  0.49377149
   0.25138343  0.25773536  0.24358450
   0.24464279  0.25193635  0.74390567
   0.24463883  0.74850315  0.25618713
   0.24909306  0.74222954  0.75751242
   0.74254470  0.25063729  0.24225978
   0.74489159  0.24185561  0.75069818
   0.74616940  0.74943746  0.25704760
   0.75755157  0.75039401  0.75581845
   0.00830209  0.49662715  0.62481622
   0.99218673  0.00571086  0.37315010
   0.99640056  0.00458330  0.87430157
   0.49885010  0.49163418  0.37535316
   0.49375344  0.49594548  0.87492591
   0.00446504  0.74548894  0.12436006
   0.01318553  0.75614354  0.62728490
   0.50832343  0.75111292  0.62509755
   0.99449346  0.24383168  0.37645167
   0.25323520  0.00495937  0.12536182
   0.24790724  0.00453411  0.62572900
   0.23841533  0.49746990  0.62604359
   0.74959905  0.49040403  0.12543043
   0.74489893  0.49205038  0.62425136
   0.75511787  0.00084945  0.37592055
   0.74967642  0.99983784  0.87339461
   0.24557548  0.24847948  0.12575086
   0.25143950  0.24865924  0.62553010
   0.74240661  0.25927151  0.12619503
   0.26117841  0.74985562  0.37432715
   0.25866340  0.75461293  0.87547314
   0.75738002  0.74917857  0.37398158
   0.75506711  0.75060084  0.87499581
   0.12453058  0.50503092  0.99406264
   0.62578526  0.50829610  0.99777809
   0.12575410  0.00506769  0.25322799
   0.62536917  0.00292853  0.25313834
   0.62507412  0.24698107  0.49400470
   0.62464430  0.74083244  0.99597765
   0.62397980  0.75301365  0.48980540
   0.12486620  0.25107102  0.75086327
   0.12577732  0.74968005  0.25638875
   0.62588640  0.24350149  0.26189380
   0.62602696  0.25168621  0.74866798
   0.62302691  0.75167370  0.25616344
   0.37617627  0.99861053  0.99500035
   0.37500711  0.49754369  0.50485754
   0.87305469  0.00022500  0.00340657
   0.87469011  0.49144082  0.50015861
   0.37618651  0.99595174  0.75223661
   0.37389514  0.49475439  0.24814040
   0.87568009  0.49593402  0.25114844
   0.87506755  0.50699842  0.74555536
   0.37605153  0.24949544  0.00438789
   0.87455085  0.25004475  0.00579179
   0.87472237  0.74520731  0.74182198
   0.50016504  0.12242035  0.49344727
   0.99510989  0.12709393  0.74133309
   0.49372289  0.12508893  0.26343885
   0.50101268  0.12369623  0.74951709
   0.50066371  0.62532726  0.75160755
   0.00181923  0.37542262  0.00220159
   0.00339273  0.87531476  0.00060964
   0.01584332  0.88023755  0.50311395
   0.50407650  0.37416184  0.00842911
   0.50589401  0.87532636  0.00512949
   0.00815554  0.37366570  0.24902882
   0.25641963  0.62556537  0.00049273
   0.75361624  0.12457863  0.50575438
   0.24883258  0.62510224  0.75155694
   0.75324697  0.12444574  0.74322174
   0.24522739  0.37312938  0.49517982
   0.24099303  0.87704940  0.50199713
   0.24086331  0.37457665  0.25500806
   0.00255937  0.00282660  0.12590974
   0.01521167  0.99300136  0.62581137
   0.00136275  0.50758186  0.12501421
   0.49769637  0.00849436  0.12661329
   0.50203107  0.99702961  0.62307341
   0.50275553  0.50826153  0.12759553
   0.50765156  0.50158683  0.62483699
   0.00252691  0.49654803  0.37603175
   0.99465110  0.50007562  0.87262634
   0.49929096  0.98796013  0.37678969
   0.51170562  0.99831639  0.87493561
   0.00837142  0.24724712  0.12719805
   0.00134173  0.26063846  0.62143568
   0.50929946  0.23778593  0.12692122
   0.49786254  0.24550228  0.62308234
   0.50272946  0.74447490  0.12705200
   0.99487929  0.24835653  0.87412888
   0.98779973  0.75309672  0.37201697
   0.99505284  0.75136475  0.87369713
   0.49174729  0.26378205  0.37585325
   0.49964403  0.25344877  0.87472731
   0.48709032  0.75552743  0.37572359
   0.49074835  0.75403732  0.87419049
   0.24397538  0.49671889  0.12487302
   0.74649798  0.00136047  0.12643647
   0.74512611  0.99444787  0.62322840
   0.25558752  0.00019405  0.37557094
   0.24659526  0.99397405  0.87448115
   0.24794347  0.50972943  0.37543992
   0.25955845  0.49667169  0.87371861
   0.74754776  0.50662645  0.37460658
   0.75322159  0.50591973  0.87405395
   0.24713286  0.75301166  0.12501022
   0.24138219  0.75168620  0.62572181
   0.75056802  0.26121562  0.62300894
   0.74654245  0.74964760  0.12547898
   0.73838995  0.74906755  0.62517634
   0.25338027  0.24491465  0.37470964
   0.25308548  0.25260572  0.87534138
   0.76297582  0.24186883  0.37392994
   0.75351923  0.24367910  0.87590555
   0.12619266  0.00366554  0.99960924
   0.12613850  0.02100852  0.49320846
   0.12317765  0.50566429  0.49220580
   0.62544020  0.00363691  0.00472214
   0.62471374  0.99512021  0.49854871
   0.62492953  0.49833574  0.49693218
   0.12670353  0.00198208  0.75275086
   0.12397612  0.50864990  0.24998384
   0.12314057  0.49417658  0.76299917
   0.62436874  0.99566162  0.74417108
   0.62514474  0.50061424  0.25105408
   0.62632351  0.49351413  0.75602904
   0.12522297  0.24854813  0.99405799
   0.12390300  0.23736390  0.49800135
   0.12537449  0.74463753  0.99362531
   0.12812888  0.73960588  0.48888780
   0.62639415  0.24741071  0.99393380
   0.12480471  0.23603814  0.25699380
   0.12403468  0.75347217  0.76032430
   0.62593461  0.75377122  0.75895923
   0.37708216  0.99617833  0.50113902
   0.37338508  0.49496032  0.00818336
   0.87646301  0.99457056  0.51247240
   0.87480401  0.49685909  0.00008658
   0.37756346  0.99467098  0.25357244
   0.37450334  0.49777004  0.74058653
   0.87396042  0.99699701  0.24290937
   0.87568726  0.99176769  0.73897122
   0.37917292  0.25154239  0.49938554
   0.37677554  0.75798803  0.00862220
   0.37680474  0.75349338  0.50928203
   0.87488945  0.25796124  0.50540675
   0.87242937  0.75595150  0.00490836
   0.86800327  0.75355828  0.51218976
   0.37835717  0.25846464  0.24619116
   0.37655739  0.25012504  0.75120392
   0.37737921  0.75051798  0.24200985
   0.37503897  0.75620575  0.74166391
   0.87441089  0.25676184  0.24414770
   0.87456267  0.25484186  0.74568995
   0.87374582  0.74917345  0.24260704
   0.00228333  0.12717732  0.00258855
   0.98885853  0.12559278  0.51293392
   0.99273767  0.62574350  0.99432367
   0.99096988  0.62176263  0.49613521
   0.50310489  0.12457467  0.99596369
   0.48902587  0.62732853  0.99868510
   0.49976108  0.62589824  0.49539497
   0.99048720  0.12767775  0.24414950
   0.99698070  0.62353858  0.25686859
   0.01012960  0.62384129  0.75183337
   0.49900171  0.62580070  0.25718804
   0.01000132  0.37188270  0.49529779
   0.50190987  0.37146550  0.50909197
   0.49770931  0.87792808  0.50040910
   0.99576267  0.37399063  0.75433251
   0.99791590  0.87603117  0.24790629
   0.00751075  0.87727063  0.74524288
   0.50594390  0.37153206  0.23949637
   0.49727778  0.37311021  0.74354041
   0.49890957  0.87614511  0.24485784
   0.50301191  0.87542275  0.75149104
   0.24808927  0.12503378  0.99210523
   0.26045959  0.12503756  0.49642665
   0.25459609  0.62663987  0.50382600
   0.74611012  0.12599152  0.00425551
   0.76213468  0.62529340  0.00478025
   0.74963838  0.62394691  0.50305659
   0.26158749  0.12674906  0.25492746
   0.25248500  0.12503494  0.75896195
   0.25324652  0.62401680  0.24372405
   0.76068715  0.12583569  0.24599540
   0.74886919  0.62453466  0.24517054
   0.73988431  0.62451951  0.74636980
   0.24745347  0.37635225  0.99907016
   0.24385418  0.87425174  0.00443681
   0.74652211  0.37482003  0.98677916
   0.74669035  0.37116920  0.48796345
   0.74339956  0.87476491  0.00545674
   0.75004906  0.87638482  0.50158180
   0.25346485  0.37629118  0.75488074
   0.25257005  0.87603132  0.24896493
   0.24360374  0.87424697  0.74467838
   0.74611215  0.37382663  0.26544182
   0.75425357  0.37343868  0.75881411
   0.75187071  0.87499176  0.24582893
   0.75053699  0.87507114  0.74548763
 
 position of ions in cartesian coordinates  (Angst):
   0.90989022 13.50411498  9.62591087
  15.34992642 15.35697561 15.36687990
   0.03209154 15.31881444  7.56226912
   0.09212126  7.64779634 15.38389132
  15.32592134  7.70262107  7.82426380
   7.62715808 15.33638996  0.00216466
   7.71883802  0.12021481  7.70563591
   7.77827487  7.64404163 15.36744609
   7.58439017  7.68181344  7.64272340
   0.10515060  0.04753080  3.93086831
   0.00973017  0.16464396 11.71704539
  15.32904039  7.61318195  3.87770832
  15.30949096  7.68272539 11.44126700
   7.81211456  0.13203776  3.87055700
   7.60854749  0.08012457 11.59375116
   7.60263144  7.65781494  3.97126572
   7.72357102  7.78085138 11.70276968
  15.36104684  3.97510364  0.01907329
  15.41024670  3.80896100  7.57825244
  15.40499192 11.69576021  0.08160586
  15.39783891 11.61397481  7.72508773
   7.64018907  3.98281043  0.02135949
   7.84400234  3.77452282  7.69584093
   7.82623089 11.66873037 15.40673378
   7.83218802 11.59498478  7.84728359
   0.00018357  3.97957920  3.93766508
   0.10936715  3.76004931 11.52669231
   0.11836627 11.54567235  3.72846336
  15.31951068 11.54927659 11.45800882
   7.84312526  3.73078135  3.88299095
   7.82614512  3.75078685 11.57741322
   7.82146040 11.58925597  3.89800771
   7.74606956 11.44878707 11.47184565
   3.95540578 15.40888600  0.09799514
   3.83750426 15.34776194  7.80975929
   3.76072160  7.83986381 15.38841503
   3.91199270  7.62648533  7.81968182
  11.68245659  0.00345645 15.33947800
  11.61863651  0.09489626  7.62823398
  11.44336982  7.71968043  0.07370465
  11.65045257  7.65280869  7.79395502
   3.77794232  0.04570250  3.76150399
   3.97571282 15.40783584 11.48358454
   3.93661922  7.59396257  3.88362385
   3.80935556  7.81667492 11.43740137
  11.49752663  0.00667647  3.94823238
  11.55676569  0.09836836 11.65983321
  11.65687149  7.68691746  3.73972862
  11.67585896  7.67742723 11.45094961
   3.97255211  3.88128954  0.09406809
   3.89845662  3.96513711  7.80092202
   3.90033718 11.46191856 15.32932401
   3.87612861 11.66135067  7.59654290
  11.68526757  3.87427919  0.11163244
  11.48229208  3.72500693  7.67889974
  11.45067626 11.55564304 15.32036589
  11.45154751 11.57843147  7.61708239
   3.87792407  3.97591092  3.75761514
   3.77394059  3.88645346 11.47573505
   3.77387963 11.54665742  3.95202748
   3.84259197 11.44987853 11.68563727
  11.45474034  3.86641382  3.73717955
  11.49094416  3.73094470 11.58051855
  11.51065613 11.56107037  3.96530132
  11.68624131 11.57582634 11.65950562
   0.12807071  7.66113484  9.63862182
  15.30580087  0.08809756  5.75633694
  15.37080479  0.07070346 13.48726546
   7.69542680  7.58411158  5.79032202
   7.61680399  7.65061907 13.49689676
   0.06887920 11.50015915  1.91841952
   0.20340441 11.66452053  9.67670451
   7.84156554 11.58691649  9.64296174
  15.34138527  3.76142816  5.80726802
   3.90649008  0.07650482  1.93387292
   3.82429909  0.06994468  9.65270260
   3.67787383  7.67413535  9.65755571
  11.56356310  7.56513493  1.93493138
  11.49105742  7.59053210  9.62990808
  11.64869824  0.01310393  5.79907483
  11.56475663 15.42382948 13.47327436
   3.78832863  3.83312670  1.93987436
   3.87878889  3.83589977  9.64963436
  11.45261003  3.99960816  1.94672626
   4.02902454 11.56752103  5.77449450
   3.99022720 11.64090884 13.50533843
  11.68359490 11.55707661  5.76916361
  11.64791524 11.57901707 13.49797506
   1.92104999  7.79077409 15.33473934
   9.65357057  7.84114381 15.39205501
   1.93992431  0.07817582  3.90637880
   9.64715176  0.04517654  3.90499579
   9.64260021  3.81001171  7.62068005
   9.63596968 11.42832645 15.36428083
   9.62571893 11.61623774  7.55590019
   1.92622729  3.87310464 11.58306528
   1.94028258 11.56481265  3.95513765
   9.65513075  3.75633460  4.04006039
   9.65729917  3.88259485 11.54920012
   9.61101927 11.59556733  3.95166199
   5.80301965 15.40489655 15.34920467
   5.78498377  7.67527357  7.78809959
  13.46803060  0.00347085  0.05255092
  13.49325920  7.58112876  7.71561226
   5.80317761 15.36388121 11.60425097
   5.76783021  7.63224499  3.82789590
  13.50853098  7.65044237  3.87429893
  13.49908168  7.82112537 11.50118372
   5.80109541  3.84879920  0.06768903
  13.49111093  3.85727309  0.08934614
  13.49375686 11.49581467 11.44359146
   7.71571139  1.88849679  7.61208092
  15.35089460  1.96059304 11.43604961
   7.61633277  1.92966322  4.06389491
   7.72878740  1.90817905 11.56229872
   7.72340411  9.64650531 11.59454687
   0.02806406  5.79139360  0.03396247
   0.05233739 13.50289519  0.00940454
   0.24440427 13.57883580  7.76120235
   7.77605092  5.77194444  0.13003018
   7.80408838 13.50307417  0.07912923
   0.12580999  5.76429072  3.84160093
   3.95561413  9.65017846  0.00760104
  11.62553349  1.92179121  7.80193454
   3.83857379  9.64303405 11.59376605
  11.61983710  1.91974125 11.46518459
   3.78295889  5.75601730  7.63880779
   3.71763820 13.52965439  7.74397386
   3.71563715  5.77834338  3.93383878
   0.03948164  0.04360400  1.94232538
   0.23466031 15.31836770  9.65397327
   0.02102218  7.83012581  1.92851054
   7.67762900  0.13103678  1.95317851
   7.74449739 15.38050880  9.61173666
   7.75567326  7.84061062  1.96833083
   7.83120098  7.73764444  9.63894216
   0.03898091  7.65991419  5.80079027
  15.34381708  7.71433210 13.46142272
   7.70222756 15.24059993  5.81248249
   7.89374021 15.40035902 13.49704635
   0.12914029  3.81411588  1.96219920
   0.02069794  4.02069522  9.58647253
   7.85662202  3.66816443  1.95792878
   7.68019240  3.78719942  9.61187436
   7.75527102 11.48451628  1.95994617
  15.34733719  3.83123005 13.48460145
  15.23812560 11.61751924  5.73885692
  15.35001450 11.59080128 13.47794105
   7.58585649  4.06918924  5.79803668
   7.70767416  3.90978459 13.49383309
   7.51401652 11.65501624  5.79603652
   7.57044642 11.63202931 13.48555180
   3.76364496  7.66255006  1.92633253
  11.51572487  0.02098699  1.95045080
  11.49456199 15.34068204  9.61412763
   3.94277773  0.00299353  5.79368169
   3.80406009 15.33337267 13.49003563
   3.82485805  7.86325485  5.79166042
   4.00403456  7.66182188 13.47827244
  11.53191920  7.81538733  5.77880508
  11.61944556  7.80448529 13.48344552
   3.81235332 11.61620707  1.92844897
   3.72364150 11.59576009  9.65259181
  11.57851074  4.02959863  9.61074217
  11.51641091 11.56431207  1.93568024
  11.39064776 11.55536392  9.64417718
   3.90872791  3.77813440  5.78039496
   3.90418032  3.89677945 13.50330579
  11.76991747  3.73114869  5.76836710
  11.62403706  3.75907448 13.51200890
   1.94668972  0.05654589 15.42030300
   1.94585424  0.32408437  7.60839697
   1.90017923  7.80054473  7.59292957
   9.64824750  0.05610414  0.07284537
   9.63704099 15.35105379  7.69077740
   9.64036985  7.68749207  7.66584031
   1.95457061  0.03057620 11.61218390
   1.91249666  7.84660170  3.85633349
   1.89960723  7.62333155 11.77027771
   9.63171891 15.35940575 11.47982940
   9.64368962  7.72264091  3.87284326
   9.66187383  7.61311233 11.66275424
   1.93173097  3.83418579 15.33466765
   1.91136866  3.66165407  7.68233369
   1.93406832 11.48702499 15.32799296
   1.97655852 11.40940504  7.54174508
   9.66296351  3.81663951 15.33275176
   1.92527883  3.64120243  3.96447149
   1.91340011 11.62331112 11.72901434
   9.65587448 11.62792433 11.70795625
   5.81699420 15.36737661  7.73073634
   5.75996187  7.63542179  0.12623921
  13.52060853 15.34257462  7.90556887
  13.49501625  7.66471281  0.00133557
   5.82441894 15.34412379  3.91169234
   5.77721242  7.67876547 11.42453301
  13.48200269 15.38000594  3.74720041
  13.50864149 15.29933669 11.39961463
   5.84924705  3.88037610  7.70368665
   5.81226425 11.69297425  0.13300892
   5.81271467 11.62363826  7.85635317
  13.49633425  3.97939544  7.79657182
  13.45838429 11.66155803  0.07571795
  13.39010574 11.62463938  7.90120885
   5.83666294  3.98716115  3.79782630
   5.80889895  3.85851159 11.58832032
   5.82157657 11.57773871  3.73332410
   5.78547536 11.66548017 11.44115294
  13.48895184  3.96089317  3.76630327
  13.49129317  3.93127494 11.50325996
  13.47869216 11.55699759  3.74253651
   0.03522345  1.96187945  0.03993184
  15.25445892  1.93743575  7.91268837
  15.31429995  9.65292628 15.33876613
  15.28702932  9.59151607  7.65354600
   7.76106254  1.92173016 15.36406548
   7.54387487  9.67737755 15.40604697
   7.70947983  9.65531335  7.64212681
  15.27958338  1.96959917  3.76633107
  15.37975423  9.61891247  3.96253996
   0.15626253  9.62358216 11.59803042
   7.69776558  9.65380878  3.96746788
   0.15428364  5.73678569  7.64062767
   7.74262772  5.73034981  7.85342126
   7.67782862 13.54320913  7.71947641
  15.36096457  5.76930324 11.63658301
  15.39418101 13.51394683  3.82428455
   0.11586335 13.53306716 11.49636338
   7.80485812  5.73137658  3.69455028
   7.67117162  5.75572152 11.47010042
   7.69634413 13.51570448  3.77725812
   7.75962817 13.50456116 11.59274955
   3.82710715  1.92881253 15.30454370
   4.01793590  1.92887071  7.65804175
   3.92748362  9.66675405  7.77218670
  11.50974164  1.94358696  0.06564686
  11.75694182  9.64598302  0.07374179
  11.56416985  9.62521154  7.76031749
   4.03533514  1.95527299  3.93259535
   3.89491722  1.92883042 11.70799823
   3.90666462  9.62628977  3.75976791
  11.73461182  1.94118296  3.79480652
  11.55230399  9.63427846  3.78208194
  11.41370028  9.63404466 11.51374758
   3.81729912  5.80573431 15.41198697
   3.76177534 13.48649665  0.06844363
  11.51609712  5.78209782 15.22238192
  11.51869249  5.72577895  7.52748576
  11.46792763 13.49441310  0.08417742
  11.57050507 13.51940225  7.73756684
   3.91003269  5.80479235 11.64504015
   3.89622924 13.51394914  3.84061540
   3.75791195 13.48642320 11.48765512
  11.50977295  5.76677340  4.09479334
  11.63536522  5.76078869 11.70571764
  11.59860642 13.49791258  3.79223842
  11.57803201 13.49913708 11.50013886
 


--------------------------------------------------------------------------------------------------------


 k-point  1 :   0.2500 0.2500 0.2500  plane waves:   93161
 k-point  2 :  -0.2500 0.2500 0.2500  plane waves:   93161
 k-point  3 :   0.2500-0.2500 0.2500  plane waves:   93161
 k-point  4 :  -0.2500-0.2500 0.2500  plane waves:   93161

 maximum and minimum number of plane-waves per node :     11686    11606

 maximum number of plane-waves:     93161
 maximum index in each direction: 
   IXMAX=   28   IYMAX=   28   IZMAX=   27
   IXMIN=  -28   IYMIN=  -28   IZMIN=  -28


 real space projection operators:
  total allocation   :     105581.89 KBytes
  max/ min on nodes  :      13236.96      13154.72


 parallel 3D FFT for wavefunctions:
    minimum data exchange during FFTs selected (reduces bandwidth)
 parallel 3D FFT for charge:
    minimum data exchange during FFTs selected (reduces bandwidth)


 total amount of memory used by VASP MPI-rank0   291538. kBytes
=======================================================================

   base      :      30000. kBytes
   nonlr-proj:      49503. kBytes
   fftplans  :      27976. kBytes
   grid      :      34041. kBytes
   one-center:       1026. kBytes
   wavefun   :     148992. kBytes
 
     INWAV:  cpu time   51.7081: real time   52.6627
 Broyden mixing: mesh for mixing (old mesh)
   NGX = 57   NGY = 57   NGZ = 57
  (NGX  =240   NGY  =240   NGZ  =240)
  gives a total of 185193 points

 charge density for first step will be calculated from the start-wavefunctions


--------------------------------------------------------------------------------------------------------


 Maximum index for non-local projection operator          970
 Maximum index for augmentation-charges         3294 (set IRDMAX)


--------------------------------------------------------------------------------------------------------


 initial charge from wavefunction
 First call to EWALD:  gamma=   0.115
 Maximum number of real-space cells 3x 3x 3
 Maximum number of reciprocal cells 3x 3x 3

    FEWALD:  cpu time    0.0168: real time    0.0168


--------------------------------------- Iteration      1(   1)  ---------------------------------------


    POTLOK:  cpu time    0.3660: real time    0.3839
    SETDIJ:  cpu time    1.4080: real time    1.4090
     EDDAV:  cpu time  134.8218: real time  136.1003
       DOS:  cpu time    0.0027: real time    0.0027
    CHARGE:  cpu time    5.3271: real time    5.3316
    MIXING:  cpu time    0.0143: real time    0.0145
    --------------------------------------------
      LOOP:  cpu time  141.9401: real time  143.2422

 eigenvalue-minimisations  : 23556
 total energy-change (2. order) :-0.1847028E+04  (-0.3516961E+03)
 number of electron    1923.0000026 magnetization       1.0000000
 augmentation part      503.5450393 magnetization       0.8026621

 Broyden mixing:
  rms(total) = 0.77040E+01    rms(broyden)= 0.77010E+01
  rms(prec ) = 0.11923E+02
  weight for this iteration     100.00

 Free energy of the ion-electron system (eV)
  ---------------------------------------------------
  alpha Z        PSCENC =      6118.73324990
  Ewald energy   TEWEN  =   -103216.42354653
  -Hartree energ DENC   =    -65394.98944524
  -exchange      EXHF   =         0.00000000
  -V(xc)+E(xc)   XCENC  =      8960.64876102
  PAW double counting   =    198711.86350913  -199707.88119136
  entropy T*S    EENTRO =        -0.00196924
  eigenvalues    EBANDS =    -25896.22973974
  atomic energy  EATOM  =    178577.25249613
  Solvation  Ediel_sol  =         0.00000000
  ---------------------------------------------------
  free energy    TOTEN  =     -1847.02787593 eV

  energy without entropy =    -1847.02590669  energy(sigma->0) =    -1847.02689131


--------------------------------------------------------------------------------------------------------




--------------------------------------- Iteration      1(   2)  ---------------------------------------


    POTLOK:  cpu time    0.2635: real time    0.2638
    SETDIJ:  cpu time    1.3728: real time    1.3732
     EDDAV:  cpu time  148.7344: real time  149.6997
       DOS:  cpu time    0.0032: real time    0.0032
    CHARGE:  cpu time    5.2220: real time    5.2284
    MIXING:  cpu time    0.0188: real time    0.0192
    --------------------------------------------
      LOOP:  cpu time  155.6147: real time  156.5874

 eigenvalue-minimisations  : 26712
 total energy-change (2. order) :-0.5443117E+01  (-0.2843997E+03)
 number of electron    1923.0000027 magnetization       1.0000000
 augmentation part      506.0278171 magnetization       0.5636841

 Broyden mixing:
  rms(total) = 0.96533E+01    rms(broyden)= 0.96490E+01
  rms(prec ) = 0.14037E+02
  weight for this iteration     100.00

 eigenvalues of (default mixing * dielectric matrix)
  average eigenvalue GAMMA=   0.4073
  0.4073

 Free energy of the ion-electron system (eV)
  ---------------------------------------------------
  alpha Z        PSCENC =      6118.73324990
  Ewald energy   TEWEN  =   -103216.42354653
  -Hartree energ DENC   =    -65453.86436950
  -exchange      EXHF   =         0.00000000
  -V(xc)+E(xc)   XCENC  =      8960.31222404
  PAW double counting   =    200344.29567366  -201317.11318466
  entropy T*S    EENTRO =        -0.00014642
  eigenvalues    EBANDS =    -25865.66338940
  atomic energy  EATOM  =    178577.25249613
  Solvation  Ediel_sol  =         0.00000000
  ---------------------------------------------------
  free energy    TOTEN  =     -1852.47099277 eV

  energy without entropy =    -1852.47084635  energy(sigma->0) =    -1852.47091956


--------------------------------------------------------------------------------------------------------




--------------------------------------- Iteration      1(   3)  ---------------------------------------


    POTLOK:  cpu time    0.2988: real time    0.3011
    SETDIJ:  cpu time    1.4517: real time    1.4528
     EDDAV:  cpu time  151.5175: real time  152.7333
       DOS:  cpu time    0.0023: real time    0.0023
    CHARGE:  cpu time    5.2295: real time    5.2355
    MIXING:  cpu time    0.0179: real time    0.0179
    --------------------------------------------
      LOOP:  cpu time  158.5178: real time  159.7429

 eigenvalue-minimisations  : 27324
 total energy-change (2. order) : 0.1358566E+02  (-0.1169110E+03)
 number of electron    1923.0000026 magnetization       1.0000000
 augmentation part      492.8412525 magnetization       0.5941027

 Broyden mixing:
  rms(total) = 0.54554E+01    rms(broyden)= 0.54531E+01
  rms(prec ) = 0.62686E+01
  weight for this iteration     100.00

 eigenvalues of (default mixing * dielectric matrix)
  average eigenvalue GAMMA=   0.4497
  0.4497  0.4497

 Free energy of the ion-electron system (eV)
  ---------------------------------------------------
  alpha Z        PSCENC =      6118.73324990
  Ewald energy   TEWEN  =   -103216.42354653
  -Hartree energ DENC   =    -65538.10229975
  -exchange      EXHF   =         0.00000000
  -V(xc)+E(xc)   XCENC  =      8962.74882545
  PAW double counting   =    200503.08204508  -201470.84208257
  entropy T*S    EENTRO =        -0.00131946
  eigenvalues    EBANDS =    -25775.33270374
  atomic energy  EATOM  =    178577.25249613
  Solvation  Ediel_sol  =         0.00000000
  ---------------------------------------------------
  free energy    TOTEN  =     -1838.88533549 eV

  energy without entropy =    -1838.88401602  energy(sigma->0) =    -1838.88467575


--------------------------------------------------------------------------------------------------------




--------------------------------------- Iteration      1(   4)  ---------------------------------------


    POTLOK:  cpu time    0.2972: real time    0.2981
    SETDIJ:  cpu time    1.4334: real time    1.4339
     EDDAV:  cpu time  146.5616: real time  147.9245
       DOS:  cpu time    0.0023: real time    0.0023
    CHARGE:  cpu time    5.2698: real time    5.2737
    MIXING:  cpu time    0.0077: real time    0.0080
    --------------------------------------------
      LOOP:  cpu time  153.5720: real time  154.9406

 eigenvalue-minimisations  : 25836
 total energy-change (2. order) : 0.3953624E+02  (-0.2956236E+02)
 number of electron    1923.0000026 magnetization       1.0000000
 augmentation part      493.9186084 magnetization       0.5991681

 Broyden mixing:
  rms(total) = 0.39626E+01    rms(broyden)= 0.39618E+01
  rms(prec ) = 0.45981E+01
  weight for this iteration     100.00

 eigenvalues of (default mixing * dielectric matrix)
  average eigenvalue GAMMA=   0.5347
  0.5832  0.5832  0.4378

 Free energy of the ion-electron system (eV)
  ---------------------------------------------------
  alpha Z        PSCENC =      6118.73324990
  Ewald energy   TEWEN  =   -103216.42354653
  -Hartree energ DENC   =    -65500.88924953
  -exchange      EXHF   =         0.00000000
  -V(xc)+E(xc)   XCENC  =      8968.05347426
  PAW double counting   =    200612.51996243  -201595.80350622
  entropy T*S    EENTRO =        -0.00524216
  eigenvalues    EBANDS =    -25762.78673098
  atomic energy  EATOM  =    178577.25249613
  Solvation  Ediel_sol  =         0.00000000
  ---------------------------------------------------
  free energy    TOTEN  =     -1799.34909270 eV

  energy without entropy =    -1799.34385054  energy(sigma->0) =    -1799.34647162


--------------------------------------------------------------------------------------------------------




--------------------------------------- Iteration      1(   5)  ---------------------------------------


    POTLOK:  cpu time    0.2632: real time    0.2654
    SETDIJ:  cpu time    1.3789: real time    1.3798
     EDDAV:  cpu time  150.6285: real time  151.6106
       DOS:  cpu time    0.0017: real time    0.0017
    CHARGE:  cpu time    5.1985: real time    5.2550
    MIXING:  cpu time    0.0107: real time    0.0110
    --------------------------------------------
      LOOP:  cpu time  157.4814: real time  158.5235

 eigenvalue-minimisations  : 27012
 total energy-change (2. order) : 0.2692772E+02  (-0.8973794E+01)
 number of electron    1923.0000026 magnetization       1.0000000
 augmentation part      494.6076149 magnetization       0.5962048

 Broyden mixing:
  rms(total) = 0.24204E+01    rms(broyden)= 0.24199E+01
  rms(prec ) = 0.28056E+01
  weight for this iteration     100.00

 eigenvalues of (default mixing * dielectric matrix)
  average eigenvalue GAMMA=   0.5949
  0.7449  0.7449  0.4449  0.4449

 Free energy of the ion-electron system (eV)
  ---------------------------------------------------
  alpha Z        PSCENC =      6118.73324990
  Ewald energy   TEWEN  =   -103216.42354653
  -Hartree energ DENC   =    -65500.24396658
  -exchange      EXHF   =         0.00000000
  -V(xc)+E(xc)   XCENC  =      8972.10312432
  PAW double counting   =    200175.15309885  -201169.70488540
  entropy T*S    EENTRO =        -0.00000000
  eigenvalues    EBANDS =    -25729.29093944
  atomic energy  EATOM  =    178577.25249613
  Solvation  Ediel_sol  =         0.00000000
  ---------------------------------------------------
  free energy    TOTEN  =     -1772.42136875 eV

  energy without entropy =    -1772.42136875  energy(sigma->0) =    -1772.42136875


--------------------------------------------------------------------------------------------------------




--------------------------------------- Iteration      1(   6)  ---------------------------------------


    POTLOK:  cpu time    0.3062: real time    0.3084
    SETDIJ:  cpu time    1.4071: real time    1.4077
     EDDAV:  cpu time  151.5501: real time  152.7855
       DOS:  cpu time    0.0018: real time    0.0017
    CHARGE:  cpu time    5.2541: real time    5.2809
    MIXING:  cpu time    0.0089: real time    0.0089
    --------------------------------------------
      LOOP:  cpu time  158.5281: real time  159.7931

 eigenvalue-minimisations  : 27096
 total energy-change (2. order) : 0.1099451E+02  (-0.3805919E+01)
 number of electron    1923.0000026 magnetization       1.0000000
 augmentation part      495.4889194 magnetization       0.5716351

 Broyden mixing:
  rms(total) = 0.14018E+01    rms(broyden)= 0.14015E+01
  rms(prec ) = 0.15603E+01
  weight for this iteration     100.00

 eigenvalues of (default mixing * dielectric matrix)
  average eigenvalue GAMMA=   0.6710
  0.9148  0.9148  0.5457  0.5457  0.4339

 Free energy of the ion-electron system (eV)
  ---------------------------------------------------
  alpha Z        PSCENC =      6118.73324990
  Ewald energy   TEWEN  =   -103216.42354653
  -Hartree energ DENC   =    -65466.60015258
  -exchange      EXHF   =         0.00000000
  -V(xc)+E(xc)   XCENC  =      8973.14317017
  PAW double counting   =    199789.91378994  -200790.82043667
  entropy T*S    EENTRO =        -0.00000000
  eigenvalues    EBANDS =    -25746.62543307
  atomic energy  EATOM  =    178577.25249613
  Solvation  Ediel_sol  =         0.00000000
  ---------------------------------------------------
  free energy    TOTEN  =     -1761.42686270 eV

  energy without entropy =    -1761.42686270  energy(sigma->0) =    -1761.42686270


--------------------------------------------------------------------------------------------------------




--------------------------------------- Iteration      1(   7)  ---------------------------------------


    POTLOK:  cpu time    0.2603: real time    0.2624
    SETDIJ:  cpu time    1.3870: real time    1.3881
     EDDAV:  cpu time  152.5508: real time  153.6084
       DOS:  cpu time    0.0018: real time    0.0018
    CHARGE:  cpu time    5.2555: real time    5.2591
    MIXING:  cpu time    0.0082: real time    0.0082
    --------------------------------------------
      LOOP:  cpu time  159.4635: real time  160.5279

 eigenvalue-minimisations  : 27480
 total energy-change (2. order) : 0.2753710E+01  (-0.9403504E+00)
 number of electron    1923.0000026 magnetization       1.0000000
 augmentation part      496.4324350 magnetization       0.5845659

 Broyden mixing:
  rms(total) = 0.10043E+01    rms(broyden)= 0.10040E+01
  rms(prec ) = 0.10548E+01
  weight for this iteration     100.00

 eigenvalues of (default mixing * dielectric matrix)
  average eigenvalue GAMMA=   0.7967
  1.2240  1.2240  0.6661  0.6661  0.5001  0.5001

 Free energy of the ion-electron system (eV)
  ---------------------------------------------------
  alpha Z        PSCENC =      6118.73324990
  Ewald energy   TEWEN  =   -103216.42354653
  -Hartree energ DENC   =    -65428.40924180
  -exchange      EXHF   =         0.00000000
  -V(xc)+E(xc)   XCENC  =      8972.22906318
  PAW double counting   =    199416.34387295  -200421.05281573
  entropy T*S    EENTRO =        -0.00000000
  eigenvalues    EBANDS =    -25777.34623112
  atomic energy  EATOM  =    178577.25249613
  Solvation  Ediel_sol  =         0.00000000
  ---------------------------------------------------
  free energy    TOTEN  =     -1758.67315303 eV

  energy without entropy =    -1758.67315303  energy(sigma->0) =    -1758.67315303


--------------------------------------------------------------------------------------------------------




--------------------------------------- Iteration      1(   8)  ---------------------------------------


    POTLOK:  cpu time    0.2602: real time    0.2623
    SETDIJ:  cpu time    1.3804: real time    1.3810
     EDDAV:  cpu time  149.8340: real time  150.6332
       DOS:  cpu time    0.0019: real time    0.0022
    CHARGE:  cpu time    5.1635: real time    5.2783
    MIXING:  cpu time    0.0167: real time    0.0206
    --------------------------------------------
      LOOP:  cpu time  156.6568: real time  157.5776

 eigenvalue-minimisations  : 26784
 total energy-change (2. order) :-0.3799918E+00  (-0.9346277E+00)
[...]
   81        1.574   3.461   0.000   5.035
   82        1.574   3.462   0.000   5.036
   83        1.574   3.461   0.000   5.035
   84        1.576   3.472   0.000   5.048
   85        1.575   3.462   0.000   5.038
   86        1.575   3.466   0.000   5.041
   87        1.576   3.461   0.000   5.037
   88        1.575   3.465   0.000   5.040
   89        1.575   3.462   0.000   5.037
   90        1.575   3.458   0.000   5.033
   91        1.574   3.462   0.000   5.036
   92        1.574   3.461   0.000   5.035
   93        1.577   3.473   0.000   5.050
   94        1.577   3.471   0.000   5.048
   95        1.577   3.475   0.000   5.052
   96        1.575   3.464   0.000   5.039
   97        1.575   3.464   0.000   5.039
   98        1.576   3.474   0.000   5.050
   99        1.575   3.464   0.000   5.039
  100        1.576   3.457   0.000   5.033
  101        1.574   3.460   0.000   5.035
  102        1.575   3.461   0.000   5.036
  103        1.576   3.461   0.000   5.036
  104        1.574   3.462   0.000   5.036
  105        1.576   3.473   0.000   5.050
  106        1.575   3.463   0.000   5.038
  107        1.575   3.462   0.000   5.037
  108        1.576   3.474   0.000   5.050
  109        1.575   3.463   0.000   5.038
  110        1.575   3.461   0.000   5.036
  111        1.576   3.473   0.000   5.049
  112        1.577   3.467   0.000   5.044
  113        1.577   3.479   0.000   5.055
  114        1.577   3.474   0.000   5.051
  115        1.574   3.465   0.000   5.040
  116        1.575   3.463   0.000   5.038
  117        1.575   3.462   0.000   5.037
  118        1.575   3.463   0.000   5.039
  119        1.571   3.486   0.000   5.057
  120        1.575   3.460   0.000   5.035
  121        1.575   3.463   0.000   5.038
  122        1.577   3.468   0.000   5.045
  123        1.577   3.474   0.000   5.051
  124        1.576   3.472   0.000   5.049
  125        1.576   3.476   0.000   5.051
  126        1.576   3.470   0.000   5.046
  127        1.575   3.459   0.000   5.034
  128        1.573   3.458   0.000   5.031
  129        1.576   3.471   0.000   5.047
  130        1.738   4.376   0.000   6.113
  131        1.735   4.383   0.000   6.119
  132        1.737   4.379   0.000   6.116
  133        1.738   4.388   0.000   6.126
  134        1.739   4.386   0.000   6.124
  135        1.737   4.368   0.000   6.105
  136        1.736   4.367   0.000   6.103
  137        1.738   4.380   0.000   6.119
  138        1.738   4.381   0.000   6.119
  139        1.740   4.388   0.000   6.127
  140        1.739   4.388   0.000   6.127
  141        1.738   4.381   0.000   6.119
  142        1.738   4.379   0.000   6.117
  143        1.738   4.386   0.000   6.124
  144        1.739   4.387   0.000   6.125
  145        1.738   4.381   0.000   6.119
  146        1.737   4.381   0.000   6.118
  147        1.737   4.379   0.000   6.115
  148        1.736   4.370   0.000   6.107
  149        1.739   4.385   0.000   6.124
  150        1.738   4.388   0.000   6.126
  151        1.738   4.373   0.000   6.112
  152        1.738   4.378   0.000   6.116
  153        1.737   4.382   0.000   6.119
  154        1.737   4.371   0.000   6.108
  155        1.737   4.372   0.000   6.109
  156        1.737   4.369   0.000   6.106
  157        1.737   4.369   0.000   6.105
  158        1.738   4.376   0.000   6.114
  159        1.738   4.376   0.000   6.114
  160        1.737   4.368   0.000   6.104
  161        1.736   4.369   0.000   6.105
  162        1.736   4.369   0.000   6.106
  163        1.736   4.365   0.000   6.101
  164        1.738   4.378   0.000   6.116
  165        1.736   4.368   0.000   6.105
  166        1.736   4.368   0.000   6.105
  167        1.737   4.370   0.000   6.106
  168        1.737   4.370   0.000   6.107
  169        1.738   4.376   0.000   6.114
  170        1.738   4.379   0.000   6.116
  171        1.737   4.370   0.000   6.106
  172        1.739   4.385   0.000   6.124
  173        1.737   4.370   0.000   6.107
  174        1.737   4.370   0.000   6.106
  175        1.738   4.384   0.000   6.122
  176        1.737   4.368   0.000   6.104
  177        1.738   4.381   0.000   6.119
  178        1.737   4.368   0.000   6.105
  179        1.738   4.376   0.000   6.113
  180        1.738   4.380   0.000   6.117
  181        1.736   4.369   0.000   6.105
  182        1.738   4.378   0.000   6.115
  183        1.737   4.368   0.000   6.105
  184        1.737   4.378   0.000   6.115
  185        1.737   4.381   0.000   6.118
  186        1.738   4.382   0.000   6.120
  187        1.737   4.370   0.000   6.107
  188        1.738   4.378   0.000   6.116
  189        1.738   4.381   0.000   6.119
  190        1.738   4.379   0.000   6.118
  191        1.739   4.387   0.000   6.126
  192        1.737   4.369   0.000   6.106
  193        1.738   4.386   0.000   6.125
  194        1.736   4.367   0.000   6.104
  195        1.737   4.370   0.000   6.107
  196        1.737   4.381   0.000   6.118
  197        1.737   4.369   0.000   6.106
  198        1.737   4.379   0.000   6.116
  199        1.738   4.382   0.000   6.120
  200        1.738   4.380   0.000   6.118
  201        1.738   4.379   0.000   6.117
  202        1.738   4.378   0.000   6.117
  203        1.738   4.380   0.000   6.117
  204        1.737   4.380   0.000   6.118
  205        1.737   4.377   0.000   6.114
  206        1.737   4.369   0.000   6.105
  207        1.737   4.368   0.000   6.105
  208        1.737   4.380   0.000   6.118
  209        1.737   4.378   0.000   6.115
  210        1.737   4.370   0.000   6.107
  211        1.737   4.370   0.000   6.106
  212        1.737   4.369   0.000   6.106
  213        1.739   4.374   0.000   6.113
  214        1.736   4.368   0.000   6.104
  215        1.738   4.385   0.000   6.123
  216        1.736   4.368   0.000   6.104
  217        1.737   4.367   0.000   6.104
  218        1.737   4.382   0.000   6.119
  219        1.738   4.379   0.000   6.117
  220        1.738   4.380   0.000   6.118
  221        1.738   4.384   0.000   6.122
  222        1.737   4.380   0.000   6.117
  223        1.738   4.383   0.000   6.121
  224        1.738   4.383   0.000   6.121
  225        1.738   4.383   0.000   6.121
  226        1.739   4.383   0.000   6.121
  227        1.737   4.380   0.000   6.117
  228        1.736   4.387   0.000   6.123
  229        1.738   4.378   0.000   6.116
  230        1.737   4.369   0.000   6.106
  231        1.738   4.376   0.000   6.114
  232        1.737   4.370   0.000   6.107
  233        1.738   4.381   0.000   6.119
  234        1.737   4.370   0.000   6.107
  235        1.737   4.369   0.000   6.106
  236        1.738   4.388   0.000   6.126
  237        1.739   4.386   0.000   6.125
  238        1.737   4.381   0.000   6.118
  239        1.738   4.378   0.000   6.116
  240        1.738   4.381   0.000   6.118
  241        1.738   4.377   0.000   6.115
  242        1.738   4.386   0.000   6.125
  243        1.738   4.388   0.000   6.126
  244        1.738   4.380   0.000   6.118
  245        1.738   4.378   0.000   6.116
  246        1.738   4.378   0.000   6.116
  247        1.738   4.385   0.000   6.124
  248        1.738   4.380   0.000   6.118
  249        1.738   4.386   0.000   6.124
  250        1.738   4.381   0.000   6.119
  251        1.738   4.381   0.000   6.119
  252        1.737   4.381   0.000   6.118
  253        1.738   4.379   0.000   6.117
  254        1.739   4.386   0.000   6.125
  255        1.738   4.377   0.000   6.115
  256        1.739   4.386   0.000   6.125
  257        1.738   4.379   0.000   6.117
--------------------------------------------------
tot        345.5781195.606 112.6711653.856
 


 magnetization (x)
 
# of ion       s       p       d       tot
------------------------------------------
    1       -0.000  -0.000   0.000  -0.000
    2       -0.000  -0.000  -0.000  -0.000
    3        0.000   0.001   0.070   0.071
    4       -0.000  -0.000   0.000   0.000
    5       -0.000   0.000   0.009   0.009
    6        0.000   0.000   0.000   0.000
    7        0.000   0.000   0.001   0.001
    8       -0.000   0.000  -0.000  -0.000
    9        0.000   0.000   0.000   0.000
   10       -0.000  -0.000   0.000  -0.000
   11       -0.000  -0.000   0.000   0.000
   12       -0.000  -0.000   0.000   0.000
   13       -0.000  -0.000  -0.000  -0.000
   14       -0.000  -0.000  -0.000  -0.000
   15       -0.000  -0.000  -0.000  -0.000
   16       -0.000   0.000   0.000   0.000
   17        0.000   0.000   0.000   0.000
   18        0.000   0.000   0.000   0.000
   19        0.000   0.000   0.001   0.001
   20       -0.000  -0.000  -0.000  -0.000
   21        0.005   0.007   0.877   0.889
   22        0.000   0.000  -0.000  -0.000
   23        0.000   0.000   0.000   0.000
   24       -0.000  -0.000  -0.000  -0.000
   25        0.000   0.000   0.001   0.001
   26       -0.000  -0.000   0.000   0.000
   27       -0.000  -0.000   0.000   0.000
   28       -0.000  -0.000  -0.000  -0.000
   29       -0.000  -0.000  -0.002  -0.002
   30        0.000   0.000  -0.000   0.000
   31       -0.000  -0.000   0.000   0.000
   32       -0.000  -0.000  -0.000  -0.000
   33       -0.000  -0.000  -0.000  -0.000
   34       -0.000  -0.000  -0.000  -0.000
   35        0.000   0.000   0.004   0.004
   36       -0.000  -0.000   0.000   0.000
   37        0.000   0.000   0.000   0.000
   38        0.000  -0.000   0.000   0.000
   39        0.000   0.000   0.003   0.003
   40       -0.000   0.000  -0.000  -0.000
   41        0.000   0.000   0.003   0.003
   42        0.000  -0.000   0.000   0.000
   43       -0.000  -0.000  -0.000  -0.000
   44       -0.000  -0.000  -0.000  -0.000
   45       -0.000  -0.000  -0.000  -0.000
   46       -0.000  -0.000  -0.000  -0.000
   47       -0.000  -0.000   0.000   0.000
   48       -0.000  -0.000   0.000   0.000
   49       -0.000  -0.000  -0.000  -0.000
   50       -0.000   0.000  -0.000  -0.000
   51        0.000   0.000   0.000   0.000
   52       -0.000  -0.000  -0.000  -0.000
   53        0.000   0.000   0.007   0.007
   54       -0.000   0.000   0.000   0.000
   55        0.000   0.000   0.001   0.001
   56       -0.000  -0.000  -0.000  -0.000
   57        0.000  -0.000   0.011   0.011
   58       -0.000   0.000  -0.000  -0.000
   59       -0.000  -0.000   0.000  -0.000
   60       -0.000  -0.000  -0.000  -0.000
   61       -0.000   0.000   0.000   0.000
   62       -0.000  -0.000   0.000   0.000
   63       -0.000  -0.000   0.000  -0.000
   64       -0.000  -0.000  -0.000  -0.000
   65        0.000  -0.000  -0.000  -0.000
   66       -0.000  -0.000   0.000  -0.000
   67       -0.000  -0.003   0.000  -0.003
   68       -0.000  -0.000   0.000  -0.000
   69       -0.000  -0.000   0.000  -0.000
   70       -0.000   0.000   0.000   0.000
   71       -0.000  -0.000   0.000  -0.000
   72       -0.001  -0.012   0.000  -0.013
   73       -0.000  -0.000   0.000  -0.000
   74       -0.000  -0.000   0.000  -0.000
   75       -0.000  -0.000   0.000  -0.000
   76       -0.000  -0.000   0.000  -0.000
   77       -0.000  -0.000   0.000  -0.000
   78       -0.000  -0.000   0.000  -0.000
   79       -0.000  -0.000   0.000  -0.000
   80       -0.000  -0.000   0.000  -0.000
   81       -0.000  -0.000   0.000  -0.000
   82        0.000   0.000   0.000   0.000
   83       -0.000  -0.000   0.000  -0.000
   84       -0.000  -0.000   0.000  -0.000
   85       -0.000  -0.000   0.000  -0.000
   86       -0.000  -0.000   0.000  -0.000
   87       -0.000  -0.000   0.000  -0.000
   88       -0.000  -0.000   0.000  -0.000
   89       -0.000  -0.000   0.000  -0.000
   90       -0.000   0.000   0.000   0.000
   91       -0.000  -0.000   0.000  -0.000
   92       -0.000  -0.000   0.000  -0.000
   93       -0.000  -0.000   0.000  -0.000
   94       -0.000  -0.000   0.000  -0.000
   95       -0.000  -0.001   0.000  -0.001
   96       -0.000  -0.000   0.000  -0.000
   97       -0.000  -0.000   0.000  -0.000
   98       -0.000  -0.000   0.000  -0.000
   99       -0.000  -0.000   0.000  -0.000
  100       -0.000  -0.000   0.000  -0.000
  101       -0.000  -0.000   0.000  -0.000
  102        0.000  -0.000   0.000  -0.000
  103       -0.000  -0.000   0.000  -0.000
  104       -0.000  -0.001   0.000  -0.001
  105       -0.000  -0.000   0.000  -0.000
  106       -0.000   0.000   0.000   0.000
  107       -0.000  -0.000   0.000  -0.000
  108       -0.000  -0.000   0.000  -0.000
  109       -0.000   0.000   0.000   0.000
  110       -0.000  -0.000   0.000  -0.000
  111       -0.000  -0.000   0.000  -0.000
  112       -0.000  -0.000   0.000  -0.000
  113       -0.000  -0.000   0.000  -0.000
  114       -0.000  -0.000   0.000  -0.000
  115       -0.000  -0.000   0.000  -0.000
  116       -0.000  -0.000   0.000  -0.000
  117       -0.000  -0.000   0.000  -0.000
  118        0.000   0.000   0.000   0.000
  119       -0.001  -0.030   0.000  -0.031
  120       -0.000   0.000   0.000   0.000
  121       -0.000  -0.000   0.000  -0.000
  122       -0.000  -0.000   0.000  -0.000
  123        0.000   0.000   0.000   0.000
  124       -0.000  -0.000   0.000  -0.000
  125       -0.000  -0.000   0.000  -0.000
  126       -0.000  -0.000   0.000  -0.000
  127        0.000  -0.000   0.000  -0.000
  128       -0.000  -0.001   0.000  -0.001
  129        0.000   0.000   0.000   0.000
  130       -0.000  -0.000   0.000  -0.000
  131       -0.000  -0.000   0.000  -0.000
  132       -0.000  -0.000   0.000  -0.000
  133       -0.000  -0.000   0.000  -0.000
  134       -0.000  -0.000   0.000  -0.000
  135       -0.000  -0.000   0.000  -0.000
  136       -0.000  -0.000   0.000  -0.000
  137       -0.000  -0.000   0.000  -0.000
  138       -0.000  -0.000   0.000  -0.000
  139       -0.000  -0.000   0.000  -0.000
  140       -0.000  -0.000   0.000  -0.000
  141        0.000  -0.000   0.000  -0.000
  142       -0.000  -0.000   0.000  -0.000
  143       -0.000  -0.000   0.000  -0.000
  144       -0.000  -0.000   0.000  -0.000
  145       -0.000  -0.000   0.000  -0.000
  146       -0.000  -0.000   0.000  -0.000
  147       -0.000  -0.007   0.000  -0.007
  148       -0.000  -0.000   0.000  -0.000
  149       -0.000  -0.000   0.000  -0.000
  150       -0.000   0.000   0.000   0.000
  151       -0.000  -0.000   0.000  -0.000
  152       -0.000  -0.000   0.000  -0.000
  153        0.000  -0.000   0.000  -0.000
  154       -0.000  -0.000   0.000  -0.000
  155       -0.000  -0.000   0.000  -0.000
  156       -0.000  -0.000   0.000  -0.000
  157       -0.000  -0.000   0.000  -0.000
  158       -0.000  -0.000   0.000  -0.000
  159        0.000   0.000   0.000   0.000
  160       -0.000  -0.000   0.000  -0.000
  161       -0.000  -0.000   0.000  -0.000
  162       -0.000  -0.000   0.000  -0.000
  163       -0.000  -0.000   0.000  -0.000
  164       -0.000  -0.000   0.000  -0.000
  165       -0.000  -0.000   0.000  -0.000
  166       -0.000  -0.000   0.000  -0.000
  167       -0.000  -0.000   0.000  -0.000
  168       -0.000  -0.000   0.000  -0.000
  169       -0.000  -0.000   0.000  -0.000
  170       -0.000  -0.000   0.000  -0.000
  171        0.000  -0.000   0.000  -0.000
  172       -0.000   0.000   0.000  -0.000
  173        0.000   0.000   0.000   0.000
  174       -0.000  -0.000   0.000  -0.000
  175       -0.000  -0.000   0.000  -0.000
  176       -0.000  -0.000   0.000  -0.000
  177       -0.000  -0.000   0.000  -0.000
  178        0.000  -0.000   0.000  -0.000
  179       -0.000  -0.000   0.000  -0.000
  180       -0.000  -0.000   0.000  -0.000
  181       -0.000  -0.000   0.000  -0.000
  182       -0.000  -0.000   0.000  -0.000
  183       -0.000  -0.000   0.000  -0.000
  184       -0.000  -0.000   0.000  -0.000
  185        0.000  -0.000   0.000  -0.000
  186       -0.000   0.001   0.000   0.001
  187        0.000   0.000   0.000   0.000
  188       -0.000  -0.000   0.000  -0.000
  189       -0.000  -0.000   0.000  -0.000
  190       -0.000  -0.000   0.000  -0.000
  191       -0.000  -0.000   0.000  -0.000
  192        0.000   0.000   0.000   0.000
  193       -0.000  -0.001   0.000  -0.001
  194       -0.000  -0.000   0.000  -0.000
  195       -0.000  -0.000   0.000  -0.000
  196        0.000  -0.000   0.000  -0.000
  197       -0.000  -0.000   0.000  -0.000
  198       -0.000  -0.000   0.000  -0.000
  199       -0.000  -0.000   0.000  -0.000
  200       -0.000  -0.000   0.000  -0.000
  201        0.000  -0.000   0.000  -0.000
  202       -0.000  -0.000   0.000  -0.000
  203        0.000  -0.000   0.000  -0.000
  204       -0.000   0.001   0.000   0.001
  205       -0.000  -0.000   0.000  -0.000
  206       -0.000  -0.000   0.000  -0.000
  207       -0.000  -0.000   0.000  -0.000
  208       -0.000  -0.000   0.000  -0.000
  209       -0.000  -0.000   0.000  -0.000
  210       -0.000  -0.000   0.000  -0.000
  211       -0.000  -0.000   0.000  -0.000
  212       -0.000  -0.000   0.000  -0.000
  213       -0.000  -0.000   0.000  -0.000
  214       -0.000  -0.000   0.000  -0.000
  215       -0.000   0.000   0.000   0.000
  216       -0.000  -0.000   0.000  -0.000
  217       -0.000   0.000   0.000   0.000
  218       -0.000  -0.000   0.000  -0.000
  219       -0.000  -0.000   0.000  -0.000
  220       -0.000  -0.000   0.000  -0.000
  221        0.000  -0.000   0.000  -0.000
  222       -0.000   0.000   0.000   0.000
  223       -0.000  -0.000   0.000  -0.000
  224       -0.000  -0.000   0.000  -0.000
  225       -0.000  -0.000   0.000  -0.000
  226       -0.000  -0.000   0.000  -0.000
  227       -0.000  -0.000   0.000  -0.000
  228       -0.000  -0.000   0.000  -0.000
  229       -0.000  -0.000   0.000  -0.000
  230       -0.000  -0.000   0.000  -0.000
  231       -0.000  -0.000   0.000  -0.000
  232       -0.000  -0.000   0.000  -0.000
  233        0.000   0.000   0.000   0.000
  234        0.000   0.000   0.000   0.000
  235        0.000   0.000   0.000   0.000
  236       -0.000  -0.000   0.000  -0.000
  237       -0.000   0.000   0.000   0.000
  238        0.000  -0.000   0.000  -0.000
  239        0.000   0.000   0.000   0.000
  240       -0.000  -0.000   0.000  -0.000
  241       -0.000  -0.000   0.000  -0.000
  242        0.000  -0.000   0.000  -0.000
  243       -0.000  -0.000   0.000  -0.000
  244       -0.000  -0.000   0.000  -0.000
  245       -0.000   0.000   0.000   0.000
  246        0.000   0.000   0.000   0.000
  247       -0.000  -0.000   0.000  -0.000
  248        0.000   0.000   0.000   0.000
  249       -0.000   0.000   0.000   0.000
  250       -0.000  -0.000   0.000  -0.000
  251       -0.000  -0.000   0.000  -0.000
  252        0.000  -0.000   0.000  -0.000
  253        0.000  -0.000   0.000  -0.000
  254       -0.000  -0.000   0.000  -0.000
  255       -0.000  -0.000   0.000  -0.000
  256       -0.000  -0.000   0.000  -0.000
  257       -0.000  -0.000   0.000  -0.000
--------------------------------------------------
tot          0.002  -0.051   0.988   0.938
 

 total amount of memory used by VASP MPI-rank0   291538. kBytes
=======================================================================

   base      :      30000. kBytes
   nonlr-proj:      49503. kBytes
   fftplans  :      27976. kBytes
   grid      :      34041. kBytes
   one-center:       1026. kBytes
   wavefun   :     148992. kBytes
 
  
  
 General timing and accounting informations for this job:
 ========================================================
  
                  Total CPU time used (sec):     5130.186
                            User time (sec):     4726.088
                          System time (sec):      404.099
                         Elapsed time (sec):     5172.884
  
                   Maximum memory used (kb):      629400.
                   Average memory used (kb):           0.
  
                          Minor page faults:       297274
                          Major page faults:           11
                 Voluntary context switches:        35682
