 vasp.6.3.0 20Jan22 (build Jan 25 2022 13:20:17) complex                        
  
 executed on             LinuxIFC date 2024.06.05  15:58:34
 running on   80 total cores
 distrk:  each k-point on   80 cores,    1 groups
 distr:  one band on NCORE=   8 cores,   10 groups


--------------------------------------------------------------------------------------------------------


 INCAR:
   SYSTEM = LTO
   ISTART = 1
   ENCUT = 700.0
   IALGO = 38
   EDIFF = 1E-6
   PREC = Accurate
   ISPIN = 2
   LMAXMIX = 4
   ADDGRID = .TRUE.
   LASPH = .TRUE.
   LREAL = Auto
   ROPT = 1E-4 1E-4 1E-4
   GGA = PS
   LDAU = .TRUE.
   LDAUTYPE = 2
   LDAUL = 2   -1    -1
   LDAUU = 4.2  0.0  0.0
   LDAUJ = 0.0  0.0  0.0
   NSW = 100
   EDIFFG = -0.01
   IBRION = 1
   ISIF = 3
   ISMEAR = 0
   SIGMA = 0.01
   ISYM = 0
   LORBIT = 11
   NEDOS = 3001
   NWRITE = 2
   NCORE = 8

 POTCAR:   PAW_PBE Ti_pv 07Sep2000                
 POTCAR:   PAW_PBE O 08Apr2002                    
 POTCAR:    PAW_PBE F 08Apr2002                   
 -----------------------------------------------------------------------------
|                                                                             |
|           W    W    AA    RRRRR   N    N  II  N    N   GGGG   !!!           |
|           W    W   A  A   R    R  NN   N  II  NN   N  G    G  !!!           |
|           W    W  A    A  R    R  N N  N  II  N N  N  G       !!!           |
|           W WW W  AAAAAA  RRRRR   N  N N  II  N  N N  G  GGG   !            |
|           WW  WW  A    A  R   R   N   NN  II  N   NN  G    G                |
|           W    W  A    A  R    R  N    N  II  N    N   GGGG   !!!           |
|                                                                             |
|     You use a magnetic or noncollinear calculation, but did not specify     |
|     the initial magnetic moment with the MAGMOM tag. Note that a            |
|     default of 1 will be used for all atoms. This ferromagnetic setup       |
|     may break the symmetry of the crystal, in particular it may rule        |
|     out finding an antiferromagnetic solution. Thence, we recommend         |
|     setting the initial magnetic moment manually or verifying carefully     |
|     that this magnetic setup is desired.                                    |
|                                                                             |
 -----------------------------------------------------------------------------

 POTCAR:   PAW_PBE Ti_pv 07Sep2000                
   VRHFIN =Ti: d3 s1                                                                                
   LEXCH  = PE                                                                                      
   EATOM  =  1042.3781 eV,   76.6126 Ry                                                             
                                                                                                    
   TITEL  = PAW_PBE Ti_pv 07Sep2000                                                                 
   LULTRA =        F    use ultrasoft PP ?                                                          
   IUNSCR =        1    unscreen: 0-lin 1-nonlin 2-no                                               
   RPACOR =    2.200    partial core radius                                                         
   POMASS =   47.880; ZVAL   =   10.000    mass and valenz                                          
   RCORE  =    2.500    outmost cutoff radius                                                       
   RWIGS  =    2.500; RWIGS  =    1.323    wigner-seitz radius (au A)                               
   ENMAX  =  222.338; ENMIN  =  166.753 eV                                                          
   RCLOC  =    1.701    cutoff for local pot                                                        
   LCOR   =        T    correct aug charges                                                         
   LPAW   =        T    paw PP                                                                      
   EAUG   =  482.848                                                                                
   DEXC   =    -.008                                                                                
   RMAX   =    3.092    core radius for proj-oper                                                   
   RAUG   =    1.300    factor for augmentation sphere                                              
   RDEP   =    2.538    radius for radial grids                                                     
   QCUT   =   -4.042; QGAM   =    8.085    optimization parameters                                  
                                                                                                    
   Description                                                                                      
     l     E      TYP  RCUT    TYP  RCUT                                                            
     1   .000     23  2.300                                                                         
     1  -.100     23  2.300                                                                         
     2   .000     23  2.500                                                                         
     2   .000     23  2.500                                                                         
     0   .000     23  2.500                                                                         
     0  1.500     23  2.500                                                                         
     3   .000      7   .000                                                                         
  local pseudopotential read in
  partial core-charges read in
  atomic valenz-charges read in
  non local Contribution for L=           1  read in
    real space projection operators read in
  non local Contribution for L=           1  read in
    real space projection operators read in
  non local Contribution for L=           2  read in
    real space projection operators read in
  non local Contribution for L=           2  read in
    real space projection operators read in
  non local Contribution for L=           0  read in
    real space projection operators read in
  non local Contribution for L=           0  read in
    real space projection operators read in
    PAW grid and wavefunctions read in
 
   number of l-projection  operators is LMAX  =           6
   number of lm-projection operators is LMMAX =          18
 
 POTCAR:   PAW_PBE O 08Apr2002                    
   VRHFIN =O: s2p4                                                                                  
   LEXCH  = PE                                                                                      
   EATOM  =   432.3788 eV,   31.7789 Ry                                                             
                                                                                                    
   TITEL  = PAW_PBE O 08Apr2002                                                                     
   LULTRA =        F    use ultrasoft PP ?                                                          
   IUNSCR =        0    unscreen: 0-lin 1-nonlin 2-no                                               
   RPACOR =     .000    partial core radius                                                         
   POMASS =   16.000; ZVAL   =    6.000    mass and valenz                                          
   RCORE  =    1.520    outmost cutoff radius                                                       
   RWIGS  =    1.550; RWIGS  =     .820    wigner-seitz radius (au A)                               
   ENMAX  =  400.000; ENMIN  =  300.000 eV                                                          
   ICORE  =        2    local potential                                                             
   LCOR   =        T    correct aug charges                                                         
   LPAW   =        T    paw PP                                                                      
   EAUG   =  605.392                                                                                
   DEXC   =     .000                                                                                
   RMAX   =    2.264    core radius for proj-oper                                                   
   RAUG   =    1.300    factor for augmentation sphere                                              
   RDEP   =    1.550    radius for radial grids                                                     
   QCUT   =   -5.520; QGAM   =   11.041    optimization parameters                                  
                                                                                                    
   Description                                                                                      
     l     E      TYP  RCUT    TYP  RCUT                                                            
     0   .000     23  1.200                                                                         
     0  -.700     23  1.200                                                                         
     1   .000     23  1.520                                                                         
     1   .600     23  1.520                                                                         
     2   .000      7  1.500                                                                         
  local pseudopotential read in
  atomic valenz-charges read in
  non local Contribution for L=           0  read in
    real space projection operators read in
  non local Contribution for L=           0  read in
    real space projection operators read in
  non local Contribution for L=           1  read in
    real space projection operators read in
  non local Contribution for L=           1  read in
    real space projection operators read in
    PAW grid and wavefunctions read in
 
   number of l-projection  operators is LMAX  =           4
   number of lm-projection operators is LMMAX =           8
 
 POTCAR:    PAW_PBE F 08Apr2002                   
   VRHFIN =F: s2p5                                                                                  
   LEXCH  = PE                                                                                      
   EATOM  =   659.6475 eV,   48.4827 Ry                                                             
                                                                                                    
   TITEL  = PAW_PBE F 08Apr2002                                                                     
   LULTRA =        F    use ultrasoft PP ?                                                          
   IUNSCR =        1    unscreen: 0-lin 1-nonlin 2-no                                               
   RPACOR =    1.200    partial core radius                                                         
   POMASS =   18.998; ZVAL   =    7.000    mass and valenz                                          
   RCORE  =    1.520    outmost cutoff radius                                                       
   RWIGS  =    1.500; RWIGS  =    0.794    wigner-seitz radius (au A)                               
   ENMAX  =  400.000; ENMIN  =  300.000 eV                                                          
   ICORE  =        2    local potential                                                             
   LCOR   =        T    correct aug charges                                                         
   LPAW   =        T    paw PP                                                                      
   EAUG   =  613.614                                                                                
   RMAX   =    1.555    core radius for proj-oper                                                   
   RAUG   =    1.300    factor for augmentation sphere                                              
   RDEP   =    1.539    radius for radial grids                                                     
   RDEPT  =    1.299    core radius for aug-charge                                                  
                                                                                                    
   Atomic configuration                                                                             
    4 entries                                                                                       
     n  l   j            E        occ.                                                              
     1  0  0.50      -663.3661   2.0000                                                             
     2  0  0.50       -29.8995   2.0000                                                             
     2  1  0.50       -11.1114   5.0000                                                             
     3  2  1.50       -10.8847   0.0000                                                             
   Description                                                                                      
     l       E           TYP  RCUT    TYP  RCUT                                                     
     0    -29.8995018     23  1.200                                                                 
     0     -9.5240782     23  1.200                                                                 
     1    -11.1113914     23  1.520                                                                 
     1      1.3605826     23  1.520                                                                 
     2    -10.8846608      7  1.500                                                                 
  local pseudopotential read in
  partial core-charges read in
  partial kinetic energy density read in
  atomic valenz-charges read in
  non local Contribution for L=           0  read in
    real space projection operators read in
  non local Contribution for L=           0  read in
    real space projection operators read in
  non local Contribution for L=           1  read in
    real space projection operators read in
  non local Contribution for L=           1  read in
    real space projection operators read in
    PAW grid and wavefunctions read in
 
   number of l-projection  operators is LMAX  =           4
   number of lm-projection operators is LMMAX =           8
 
 Optimization of the real space projectors (new method)

 maximal supplied QI-value         = 15.12
 optimisation between [QCUT,QGAM] = [ 13.45, 27.06] = [ 50.69,205.06] Ry 
 Optimized for a Real-space Cutoff    1.49 Angstroem

   l    n(q)    QCUT    max X(q) W(low)/X(q) W(high)/X(q)  e(spline) 
   1     12    13.455     4.841    0.13E-05    0.83E-06    0.56E-07
   1     12    13.455     5.701    0.32E-04    0.25E-04    0.17E-06
   2     11    13.455     4.569    0.64E-05    0.34E-05    0.50E-07
   2     11    13.455    32.276    0.49E-04    0.38E-04    0.46E-06
   0     12    13.455    30.046    0.17E-04    0.41E-05    0.51E-07
   0     12    13.455    45.433    0.12E-04    0.27E-04    0.38E-06
 Optimization of the real space projectors (new method)

 maximal supplied QI-value         = 24.76
 optimisation between [QCUT,QGAM] = [ 13.37, 26.98] = [ 50.04,203.89] Ry 
 Optimized for a Real-space Cutoff    1.17 Angstroem

   l    n(q)    QCUT    max X(q) W(low)/X(q) W(high)/X(q)  e(spline) 
   0      9    13.368     4.192    0.20E-04    0.58E-05    0.56E-07
   0      9    13.368     8.473    0.60E-04    0.52E-04    0.21E-06
   1      9    13.368     2.474    0.22E-04    0.17E-04    0.28E-07
   1      9    13.368     3.912    0.94E-04    0.97E-04    0.20E-06
 Optimization of the real space projectors (new method)

 maximal supplied QI-value         = 24.76
 optimisation between [QCUT,QGAM] = [ 13.37, 26.98] = [ 50.04,203.89] Ry 
 Optimized for a Real-space Cutoff    1.17 Angstroem

   l    n(q)    QCUT    max X(q) W(low)/X(q) W(high)/X(q)  e(spline) 
   0      9    13.368    14.049    0.39E-04    0.34E-04    0.16E-06
   0      9    13.368     8.945    0.54E-04    0.47E-04    0.20E-06
   1      9    13.368     7.086    0.99E-04    0.10E-03    0.23E-06
   1      9    13.368     6.747    0.86E-04    0.89E-04    0.21E-06
 -----------------------------------------------------------------------------
|                                                                             |
|               ----> ADVICE to this user running VASP <----                  |
|                                                                             |
|     You enforced a specific xc type in the INCAR file but a different       |
|     type was found in the POTCAR file.                                      |
|     I HOPE YOU KNOW WHAT YOU ARE DOING!                                     |
|                                                                             |
 -----------------------------------------------------------------------------

 PAW_PBE Ti_pv 07Sep2000                :
 energy of atom  1       EATOM=-1042.3781
 kinetic energy error for atom=    0.0006 (will be added to EATOM!!)
 PAW_PBE O 08Apr2002                    :
 energy of atom  2       EATOM= -432.3788
 kinetic energy error for atom=    0.0091 (will be added to EATOM!!)
  PAW_PBE F 08Apr2002                   :
 energy of atom  3       EATOM= -659.6475
 kinetic energy error for atom=    0.0140 (will be added to EATOM!!)
 
 
 POSCAR: Ti27 O27 F54
  positions in direct lattice
  velocities in cartesian coordinates
 exchange correlation table for  LEXCH =       14
   RHO(1)=    0.500       N(1)  =     2000
   RHO(2)=  100.500       N(2)  =     4000
 


--------------------------------------------------------------------------------------------------------


 ion  position               nearest neighbor table
   1  0.010  0.010  0.009-  46 1.83  28 1.83  37 1.84  92 2.05  85 2.09  59 2.09
   2  0.001  0.989  0.322-  30 1.81  46 1.82  86 1.95  73 1.95  55 2.08  91 2.09
   3  0.987  0.001  0.667-  43 1.76  91 1.94  56 1.94  92 1.94  60 1.95  74 2.07
   4  0.990  0.321  0.000-  28 1.79  44 1.81  93 1.95  94 1.95  75 2.05  57 2.13
   5  0.007  0.333  0.343-  47 1.81  38 1.87  55 1.93  58 1.94  87 2.03  93 2.05
   6  0.000  0.344  0.658-  29 1.81  47 1.85  76 1.94  88 1.94  94 2.04  56 2.07
   7  0.000  0.667  0.999-  96 1.89  95 1.89  57 1.89  77 1.89  59 1.89  89 1.90
   8  0.992  0.675  0.342-  45 1.84  48 1.85  30 1.85  78 2.04  58 2.05  95 2.11
   9  0.000  0.657  0.654-  48 1.78  29 1.84  90 1.94  79 1.94  60 2.05  96 2.12
  10  0.320  0.009  0.999-  37 1.79  31 1.84  97 1.94  98 1.94  66 2.04  80 2.13
  11  0.343  0.991  0.342-  39 1.84  49 1.85  32 1.86  97 2.06  73 2.06  61 2.08
  12  0.332  0.990  0.656-  49 1.80  33 1.83  74 1.95  81 1.96  62 2.06  98 2.07
  13  0.333  0.324  0.991-  50 1.82  31 1.82  82 1.95  75 1.96  63 2.05  99 2.07
  14  0.321  0.334  0.333-  38 1.78  64 1.92  61 1.92 100 1.93  99 1.93  83 2.06
  15  0.344  0.334  0.677-  40 1.82  50 1.83  62 1.94  65 1.94  76 2.05 100 2.07
  16  0.345  0.667  0.009-  51 1.81  41 1.81  63 1.95  66 1.95 102 2.04  77 2.10
  17  0.333  0.678  0.324-  32 1.79  51 1.85  84 1.95  78 1.95 101 2.04  64 2.09
  18  0.345  0.675  0.667-  42 1.80  33 1.83 101 1.96 102 1.97  65 2.06  79 2.07
  19  0.666  1.000  0.000- 104 1.89 103 1.89  80 1.89  67 1.90  71 1.90  85 1.90
  20  0.656  0.005  0.344-  52 1.81  39 1.82  34 1.91  72 2.01  86 2.06 103 2.13
  21  0.670  0.989  0.656-  52 1.81  36 1.82  43 1.91  81 2.01  68 2.07 104 2.13
  22  0.675  0.343  0.992-  35 1.84  53 1.84  44 1.85  82 2.04 105 2.05  67 2.10
  23  0.666  0.320  0.334-  34 1.76 106 1.94 105 1.94  83 1.94  87 1.95  69 2.06
  24  0.657  0.334  0.679-  53 1.81  40 1.84  68 1.94  70 1.94  88 2.06 106 2.09
  25  0.656  0.654  1.000-  35 1.79  41 1.81 107 1.93 108 1.93  89 2.10  71 2.11
  26  0.678  0.665  0.344-  54 1.81  45 1.82  69 1.96  72 1.96  84 2.06 107 2.08
  27  0.658  0.676  0.659-  36 1.84  54 1.86  42 1.86  90 2.06 108 2.07  70 2.07
  28  0.004  0.167  0.997-   4 1.79   1 1.83
  29  0.999  0.499  0.673-   6 1.81   9 1.84
  30  0.009  0.833  0.335-   2 1.81   8 1.85
  31  0.331  0.167  0.004-  13 1.82  10 1.84
  32  0.324  0.832  0.337-  17 1.79  11 1.86
  33  0.338  0.833  0.666-  12 1.83  18 1.83
  34  0.671  0.169  0.333-  23 1.76  20 1.91
  35  0.667  0.501  0.003-  25 1.79  22 1.84
  36  0.660  0.834  0.676-  21 1.82  27 1.84
  37  0.166  0.991  0.996-  10 1.79   1 1.84
  38  0.168  0.332  0.332-  14 1.78   5 1.87
  39  0.500  0.999  0.324-  20 1.82  11 1.84
  40  0.500  0.340  0.659-  15 1.82  24 1.84
  41  0.501  0.670  0.993-  16 1.81  25 1.81
  42  0.499  0.654  0.673-  18 1.80  27 1.86
  43  0.835  0.001  0.667-   3 1.76  21 1.91
  44  0.834  0.332  0.001-   4 1.81  22 1.85
  45  0.834  0.664  0.325-  26 1.82   8 1.84
  46  0.994  0.998  0.166-   2 1.82   1 1.83
  47  0.996  0.335  0.499-   5 1.81   6 1.85
  48  0.999  0.662  0.501-   9 1.78   8 1.85
  49  0.334  0.007  0.501-  12 1.80  11 1.85
  50  0.335  0.336  0.834-  13 1.82  15 1.83
  51  0.332  0.667  0.165-  16 1.81  17 1.85
  52  0.661  0.995  0.500-  20 1.81  21 1.81
  53  0.661  0.328  0.834-  24 1.81  22 1.84
  54  0.670  0.667  0.500-  26 1.81  27 1.86
  55  0.991  0.168  0.332-   5 1.93   2 2.08
  56  0.004  0.167  0.674-   3 1.94   6 2.07
  57  0.001  0.504  0.996-   7 1.89   4 2.13
  58  0.001  0.499  0.324-   5 1.94   8 2.05
  59  0.992  0.830  0.999-   7 1.89   1 2.09
  60  0.004  0.834  0.666-   3 1.95   9 2.05
  61  0.338  0.169  0.323-  14 1.92  11 2.08
  62  0.330  0.167  0.671-  15 1.94  12 2.06
  63  0.332  0.500  0.001-  16 1.95  13 2.05
  64  0.339  0.498  0.338-  14 1.92  17 2.09
  65  0.319  0.499  0.662-  15 1.94  18 2.06
  66  0.335  0.834  0.993-  16 1.95  10 2.04
  67  0.662  0.163  0.009-  19 1.90  22 2.10
  68  0.666  0.167  0.662-  24 1.94  21 2.07
  69  0.661  0.498  0.327-  26 1.96  23 2.06
  70  0.682  0.500  0.670-  24 1.94  27 2.07
  71  0.673  0.836  0.994-  19 1.90  25 2.11
  72  0.668  0.833  0.325-  26 1.96  20 2.01
  73  0.167  0.016  0.330-   2 1.95  11 2.06
  74  0.165  0.001  0.674-  12 1.95   3 2.07
  75  0.166  0.343  0.006-  13 1.96   4 2.05
  76  0.167  0.329  0.663-   6 1.94  15 2.05
  77  0.164  0.672  0.995-   7 1.89  16 2.10
  78  0.166  0.652  0.333-  17 1.95   8 2.04
  79  0.166  0.669  0.671-   9 1.94  18 2.07
  80  0.503  0.993  0.006-  19 1.89  10 2.13
  81  0.499  0.012  0.675-  12 1.96  21 2.01
  82  0.500  0.333  0.008-  13 1.95  22 2.04
  83  0.499  0.333  0.340-  23 1.94  14 2.06
  84  0.501  0.668  0.333-  17 1.95  26 2.06
  85  0.830  0.001  0.990-  19 1.90   1 2.09
  86  0.833  0.996  0.338-   2 1.95  20 2.06
  87  0.833  0.341  0.325-  23 1.95   5 2.03
  88  0.834  0.325  0.672-   6 1.94  24 2.06
  89  0.837  0.668  0.007-   7 1.90  25 2.10
  90  0.835  0.674  0.674-   9 1.94  27 2.06
  91  0.006  0.006  0.501-   3 1.94   2 2.09
  92  0.997  0.992  0.834-   3 1.94   1 2.05
  93  0.001  0.335  0.167-   4 1.95   5 2.05
  94  0.007  0.334  0.833-   4 1.95   6 2.04
  95  0.009  0.666  0.162-   7 1.89   8 2.11
  96  0.998  0.672  0.836-   7 1.89   9 2.12
  97  0.330  0.994  0.165-  10 1.94  11 2.06
  98  0.340  0.002  0.834-  10 1.94  12 2.07
  99  0.338  0.342  0.168-  14 1.93  13 2.07
 100  0.330  0.327  0.499-  14 1.93  15 2.07
 101  0.332  0.660  0.499-  18 1.96  17 2.04
 102  0.323  0.661  0.835-  18 1.97  16 2.04
 103  0.678  0.995  0.162-  19 1.89  20 2.13
 104  0.662  0.011  0.838-  19 1.89  21 2.13
 105  0.661  0.332  0.167-  23 1.94  22 2.05
 106  0.676  0.339  0.499-  23 1.94  24 2.09
 107  0.663  0.674  0.165-  25 1.93  26 2.08
 108  0.680  0.665  0.835-  25 1.93  27 2.07
 

IMPORTANT INFORMATION: All symmetrisations will be switched off!
NOSYMM: (Re-)initialisation of all symmetry stuff for point group C_1.


----------------------------------------------------------------------------------------

                                     Primitive cell                                     

  volume of cell :    1556.9948

  direct lattice vectors                    reciprocal lattice vectors
    11.579192152 -0.007787382  0.013012176     0.086361959  0.000057996 -0.000097158
    -0.007780770 11.593090728  0.004062076     0.000058046  0.086258324 -0.000030558
     0.013045982  0.004100220 11.598730898    -0.000096907 -0.000030274  0.086216449

  length of vectors
    11.579202082 11.593094050 11.598738959     0.086362033  0.086258349  0.086216509

  position of ions in fractional coordinates (direct lattice)
     0.009530522  0.009585543  0.008905946
     0.000730549  0.988629583  0.321922849
     0.986736665  0.000668003  0.666975975
     0.989858243  0.320913035  0.000143450
     0.006843040  0.333389840  0.343485041
     0.000192534  0.344357373  0.658065262
     0.000483512  0.667176091  0.999099571
     0.991706125  0.675074118  0.342305850
     0.000287812  0.657007999  0.654171769
     0.319946141  0.009270292  0.999334353
     0.342639409  0.991300191  0.342080425
     0.332416670  0.990355028  0.655597642
     0.332764179  0.323775999  0.990558235
     0.321303544  0.333815581  0.333234928
     0.343607789  0.334049462  0.676967852
     0.344990602  0.667128628  0.009337794
     0.332690709  0.678332753  0.324122689
     0.345059038  0.675038130  0.667405618
     0.666465902  0.999602052  0.000100414
     0.655857868  0.004548035  0.344232529
     0.670374298  0.989455297  0.655902391
     0.675269479  0.342908367  0.991706483
     0.666224042  0.320250811  0.333957533
     0.656956324  0.333941514  0.678520661
     0.656179000  0.654471387  0.999958908
     0.678313442  0.664992943  0.343994437
     0.657837752  0.676327557  0.658886034
     0.003942552  0.166842253  0.996742867
     0.998502148  0.499413759  0.673403499
     0.009408572  0.833295645  0.334506977
     0.330890963  0.167217086  0.004084070
     0.324281088  0.831965157  0.337355766
     0.338090738  0.832916939  0.665701113
     0.670570703  0.168704851  0.332850394
     0.667136281  0.500921588  0.003355658
     0.659673973  0.834253954  0.675648287
     0.166476384  0.991470387  0.996076500
     0.167503935  0.331644120  0.331594073
     0.500057083  0.998527105  0.324064667
     0.499689359  0.340185396  0.659151717
     0.500536344  0.670377478  0.992589154
     0.499245243  0.654314913  0.673192709
     0.834869094  0.000887778  0.667363019
     0.833951423  0.331530183  0.000628677
     0.834499799  0.664347571  0.324684963
     0.994285506  0.998222469  0.165532068
     0.996294048  0.334964335  0.499026781
     0.998605177  0.661617960  0.500724391
     0.333761829  0.007108944  0.500941193
     0.334543553  0.335897239  0.834288847
     0.331996461  0.667188539  0.164966209
     0.661189036  0.995092675  0.499970004
     0.661064684  0.328289164  0.834264954
     0.669711041  0.667368399  0.499505325
     0.990533893  0.167678796  0.331864955
     0.003970952  0.166940771  0.673657559
     0.001028043  0.504071045  0.996475266
     0.000871770  0.499222049  0.323841583
     0.992092531  0.830277305  0.999051193
     0.004057542  0.833646334  0.665811035
     0.337678399  0.169313836  0.322706758
     0.330101187  0.167288708  0.671127673
     0.331505190  0.500073229  0.000707561
     0.339162136  0.498421201  0.338169160
     0.319480962  0.499262939  0.661743931
     0.335472522  0.834223009  0.993183086
     0.661523469  0.162842938  0.009182521
     0.666115109  0.167464506  0.662113671
     0.660972046  0.497887854  0.327078584
     0.681647859  0.499683872  0.669632810
     0.673358824  0.835999162  0.994048603
     0.668389733  0.832909957  0.324819141
     0.166919240  0.015693191  0.330277300
     0.164928850  0.000800095  0.673882254
     0.165756560  0.343008600  0.006447216
     0.167108465  0.329055499  0.663226627
     0.163885339  0.671661282  0.995024390
     0.166392611  0.652144246  0.332753275
     0.166197923  0.669292769  0.670600193
     0.503142477  0.993427023  0.006451384
     0.499439878  0.012099392  0.675005582
     0.499684703  0.332919247  0.007595826
     0.499060285  0.332851583  0.340334487
     0.500574524  0.667827828  0.332745440
     0.830304778  0.001227880  0.990469547
     0.833406662  0.995810782  0.338409169
     0.833092633  0.341432805  0.324983403
     0.834089530  0.324838580  0.671536863
     0.836631377  0.667563531  0.006974069
     0.835142946  0.673611514  0.673824263
     0.005580972  0.005866621  0.500923848
     0.997296003  0.992380724  0.833849506
     0.000873676  0.335103293  0.167216260
     0.007092138  0.334458458  0.833187645
     0.009353997  0.665667973  0.161608914
     0.997994274  0.671820134  0.836476825
     0.330122624  0.994338287  0.165344949
     0.340029719  0.002350175  0.833552611
     0.337963464  0.342311286  0.167765932
     0.329785432  0.326980614  0.499175527
     0.331579597  0.659789683  0.499400359
     0.323399487  0.660762275  0.834893434
     0.678072523  0.995276686  0.162391244
     0.661601916  0.010758805  0.837803467
     0.660710970  0.331557518  0.167438614
     0.676426573  0.338826016  0.499466726
     0.662849194  0.673539585  0.165338078
     0.679504289  0.664807008  0.835221161

  ion indices of the primitive-cell ions
   primitive index   ion index
                 1           1
                 2           2
                 3           3
                 4           4
                 5           5
                 6           6
                 7           7
                 8           8
                 9           9
                10          10
                11          11
                12          12
                13          13
                14          14
                15          15
                16          16
                17          17
                18          18
                19          19
                20          20
                21          21
                22          22
                23          23
                24          24
                25          25
                26          26
                27          27
                28          28
                29          29
                30          30
                31          31
                32          32
                33          33
                34          34
                35          35
                36          36
                37          37
                38          38
                39          39
                40          40
                41          41
                42          42
                43          43
                44          44
                45          45
                46          46
                47          47
                48          48
                49          49
                50          50
                51          51
                52          52
                53          53
                54          54
                55          55
                56          56
                57          57
                58          58
                59          59
                60          60
                61          61
                62          62
                63          63
                64          64
                65          65
                66          66
                67          67
                68          68
                69          69
                70          70
                71          71
                72          72
                73          73
                74          74
                75          75
                76          76
                77          77
                78          78
                79          79
                80          80
                81          81
                82          82
                83          83
                84          84
                85          85
                86          86
                87          87
                88          88
                89          89
                90          90
                91          91
                92          92
                93          93
                94          94
                95          95
                96          96
                97          97
                98          98
                99          99
               100         100
               101         101
               102         102
               103         103
               104         104
               105         105
               106         106
               107         107
               108         108

----------------------------------------------------------------------------------------

 
 
 KPOINTS: Title                                   

Automatic generation of k-mesh.
 Grid dimensions read from file:
 generate k-points for:    3    3    3

 Generating k-lattice:

  Cartesian coordinates                     Fractional coordinates (reciprocal lattice)
     0.028787320  0.000019332 -0.000032386     0.333333333  0.000000000 -0.000000000
     0.000019349  0.028752775 -0.000010186    -0.000000000  0.333333333 -0.000000000
    -0.000032302 -0.000010091  0.028738816    -0.000000000  0.000000000  0.333333333

  Length of vectors
     0.028787344  0.028752783  0.028738836

  Shift w.r.t. Gamma in fractional coordinates (k-lattice)
     0.000000000  0.000000000  0.000000000

 
 Subroutine IBZKPT returns following result:
 ===========================================
 
 Found     14 irreducible k-points:
 
 Following reciprocal coordinates:
            Coordinates               Weight
  0.000000  0.000000  0.000000      1.000000
  0.333333 -0.000000  0.000000      2.000000
 -0.000000  0.333333  0.000000      2.000000
  0.333333  0.333333 -0.000000      2.000000
 -0.333333  0.333333 -0.000000      2.000000
 -0.000000 -0.000000  0.333333      2.000000
  0.333333 -0.000000  0.333333      2.000000
 -0.333333  0.000000  0.333333      2.000000
 -0.000000  0.333333  0.333333      2.000000
  0.333333  0.333333  0.333333      2.000000
 -0.333333  0.333333  0.333333      2.000000
 -0.000000 -0.333333  0.333333      2.000000
  0.333333 -0.333333  0.333333      2.000000
 -0.333333 -0.333333  0.333333      2.000000
 
 Following cartesian coordinates:
            Coordinates               Weight
  0.000000  0.000000  0.000000      1.000000
  0.028787  0.000019 -0.000032      2.000000
  0.000019  0.028753 -0.000010      2.000000
  0.028807  0.028772 -0.000043      2.000000
 -0.028768  0.028733  0.000022      2.000000
 -0.000032 -0.000010  0.028739      2.000000
  0.028755  0.000009  0.028706      2.000000
 -0.028820 -0.000029  0.028771      2.000000
 -0.000013  0.028743  0.028729      2.000000
  0.028774  0.028762  0.028696      2.000000
 -0.028800  0.028723  0.028761      2.000000
 -0.000052 -0.028763  0.028749      2.000000
  0.028736 -0.028744  0.028717      2.000000
 -0.028839 -0.028782  0.028781      2.000000
 


--------------------------------------------------------------------------------------------------------




 Dimension of arrays:
   k-points           NKPTS =     14   k-points in BZ     NKDIM =     14   number of bands    NBANDS=    540
   number of dos      NEDOS =   3001   number of ions     NIONS =    108
   non local maximal  LDIM  =      6   non local SUM 2l+1 LMDIM =     18
   total plane-waves  NPLWV = ******
   max r-space proj   IRMAX =   8911   max aug-charges    IRDMAX= 199659
   dimension x,y,z NGX =   100 NGY =  100 NGZ =  100
   dimension x,y,z NGXF=   200 NGYF=  200 NGZF=  200
   support grid    NGXF=   400 NGYF=  400 NGZF=  400
   ions per type =              27  27  54
   NGX,Y,Z   is equivalent  to a cutoff of  14.36, 14.34, 14.33 a.u.
   NGXF,Y,Z  is equivalent  to a cutoff of  28.71, 28.68, 28.67 a.u.

 SYSTEM =  LTO                                     
 POSCAR =  Ti27 O27 F54                            

 Startparameter for this run:
   NWRITE =      2    write-flag & timer
   PREC   = accura    normal or accurate (medium, high low for compatibility)
   ISTART =      1    job   : 0-new  1-cont  2-samecut
   ICHARG =      0    charge: 1-file 2-atom 10-const
   ISPIN  =      2    spin polarized calculation?
   LNONCOLLINEAR =      F non collinear calculations
   LSORBIT =      F    spin-orbit coupling
   INIWAV =      1    electr: 0-lowe 1-rand  2-diag
   LASPH  =      T    aspherical Exc in radial PAW
 Electronic Relaxation 1
   ENCUT  =  700.0 eV  51.45 Ry    7.17 a.u.  24.98 25.01 25.02*2*pi/ulx,y,z
   ENINI  =  700.0     initial cutoff
   ENAUG  =  613.6 eV  augmentation charge cutoff
   NELM   =     60;   NELMIN=  2; NELMDL=  0     # of ELM steps 
   EDIFF  = 0.1E-05   stopping-criterion for ELM
   LREAL  =      T    real-space projection
   NLSPLINE    = F    spline interpolate recip. space projectors
   LCOMPAT=      F    compatible to vasp.4.4
   GGA_COMPAT  = T    GGA compatible to vasp.4.4-vasp.4.6
   LMAXPAW     = -100 max onsite density
   LMAXMIX     =    4 max onsite mixed and CHGCAR
   VOSKOWN=      0    Vosko Wilk Nusair interpolation
   ROPT   =   -0.00010  -0.00010  -0.00010
 Ionic relaxation
   EDIFFG = -.1E-01   stopping-criterion for IOM
   NSW    =    100    number of steps for IOM
   NBLOCK =      1;   KBLOCK =    100    inner block; outer block 
   IBRION =      1    ionic relax: 0-MD 1-quasi-New 2-CG
   NFREE  =      0    steps in history (QN), initial steepest desc. (CG)
   ISIF   =      3    stress and relaxation
   IWAVPR =     11    prediction:  0-non 1-charg 2-wave 3-comb
   ISYM   =      0    0-nonsym 1-usesym 2-fastsym
   LCORR  =      T    Harris-Foulkes like correction to forces

   POTIM  = 0.5000    time-step for ionic-motion
   TEIN   =    0.0    initial temperature
   TEBEG  =    0.0;   TEEND  =   0.0 temperature during run
   SMASS  =  -3.00    Nose mass-parameter (am)
   estimated Nose-frequenzy (Omega)   =  0.10E-29 period in steps = 0.13E+47 mass=  -0.306E-26a.u.
   SCALEE = 1.0000    scale energy and forces
   NPACO  =    256;   APACO  = 10.0  distance and # of slots for P.C.
   PSTRESS=    0.0 pullay stress

  Mass of Ions in am
   POMASS =  47.88 16.00 19.00
  Ionic Valenz
   ZVAL   =  10.00  6.00  7.00
  Atomic Wigner-Seitz radii
   RWIGS  =  -1.00 -1.00 -1.00
  virtual crystal weights 
   VCA    =   1.00  1.00  1.00
   NELECT =     810.0000    total number of electrons
   NUPDOWN=      -1.0000    fix difference up-down

 DOS related values:
   EMIN   =  10.00;   EMAX   =-10.00  energy-range for DOS
   EFERMI =   0.00
   ISMEAR =     0;   SIGMA  =   0.01  broadening in eV -4-tet -1-fermi 0-gaus

 Electronic relaxation 2 (details)
   IALGO  =     38    algorithm
   LDIAG  =      T    sub-space diagonalisation (order eigenvalues)
   LSUBROT=      F    optimize rotation matrix (better conditioning)
   TURBO    =      0    0=normal 1=particle mesh
   IRESTART =      0    0=no restart 2=restart with 2 vectors
   NREBOOT  =      0    no. of reboots
   NMIN     =      0    reboot dimension
   EREF     =   0.00    reference energy to select bands
   IMIX   =      4    mixing-type and parameters
     AMIX     =   0.40;   BMIX     =  1.00
     AMIX_MAG =   1.60;   BMIX_MAG =  1.00
     AMIN     =   0.10
     WC   =   100.;   INIMIX=   1;  MIXPRE=   1;  MAXMIX= -45

 Intra band minimization:
   WEIMIN = 0.0010     energy-eigenvalue tresh-hold
   EBREAK =  0.46E-09  absolut break condition
   DEPER  =   0.30     relativ break condition  

   TIME   =   0.40     timestep for ELM

  volume/ion in A,a.u.               =      14.42        97.29
  Fermi-wavevector in a.u.,A,eV,Ry     =   1.316661  2.488129 23.587024  1.733597
  Thomas-Fermi vector in A             =   2.446758
 
 Write flags
   LWAVE        =      T    write WAVECAR
   LDOWNSAMPLE  =      F    k-point downsampling of WAVECAR
   LCHARG       =      T    write CHGCAR
   LVTOT        =      F    write LOCPOT, total local potential
   LVHAR        =      F    write LOCPOT, Hartree potential only
   LELF         =      F    write electronic localiz. function (ELF)
   LORBIT       =     11    0 simple, 1 ext, 2 COOP (PROOUT), +10 PAW based schemes


 Dipole corrections
   LMONO  =      F    monopole corrections only (constant potential shift)
   LDIPOL =      F    correct potential (dipole corrections)
   IDIPOL =      0    1-x, 2-y, 3-z, 4-all directions 
   EPSILON=  1.0000000 bulk dielectric constant

 LDA+U is selected, type is set to LDAUTYPE =  2
   angular momentum for each species LDAUL =     2   -1   -1
   U (eV)           for each species LDAUU =   4.2  0.0  0.0
   J (eV)           for each species LDAUJ =   0.0  0.0  0.0
 Exchange correlation treatment:
   GGA     =    PS    GGA type
   LEXCH   =    14    internal setting for exchange type
   LIBXC   =     F    Libxc                    
   VOSKOWN =     0    Vosko Wilk Nusair interpolation
   LHFCALC =     F    Hartree Fock is set to
   LHFONE  =     F    Hartree Fock one center treatment
   AEXX    =    0.0000 exact exchange contribution

 Linear response parameters
   LEPSILON=     F    determine dielectric tensor
   LRPA    =     F    only Hartree local field effects (RPA)
   LNABLA  =     F    use nabla operator in PAW spheres
   LVEL    =     F    velocity operator in full k-point grid
   CSHIFT  =0.1000    complex shift for real part using Kramers Kronig
   OMEGAMAX=  -1.0    maximum frequency
   DEG_THRESHOLD= 0.2000000E-02 threshold for treating states as degnerate
   RTIME   =   -0.100 relaxation time in fs
  (WPLASMAI=    0.000 imaginary part of plasma frequency in eV, 0.658/RTIME)
   DFIELD  = 0.0000000 0.0000000 0.0000000 field for delta impulse in time
 
  Optional k-point grid parameters
   LKPOINTS_OPT  =     F    use optional k-point grid
   KPOINTS_OPT_MODE=     1    mode for optional k-point grid
 
 Orbital magnetization related:
   ORBITALMAG=     F  switch on orbital magnetization
   LCHIMAG   =     F  perturbation theory with respect to B field
   DQ        =  0.001000  dq finite difference perturbation B field
   LLRAUG    =     F  two centre corrections for induced B field



--------------------------------------------------------------------------------------------------------


 quasi-Newton-method for relaxation of ions
 charge density and potential will be updated during run
 spin polarized calculation
 Variant of blocked Davidson
 Davidson routine will perform the subspace rotation
 perform sub-space diagonalisation
    after iterative eigenvector-optimisation
 modified Broyden-mixing scheme, WC =      100.0
 initial mixing is a Kerker type mixing with AMIX =  0.4000 and BMIX =      1.0000
 Hartree-type preconditioning will be used
 using additional bands          135
 real space projection scheme for non local part
 use partial core corrections
 calculate Harris-corrections to forces 
   (improved forces if not selfconsistent)
 use gradient corrections 
 use of overlap-Matrix (Vanderbilt PP)
 Gauss-broadening in eV      SIGMA  =   0.01


--------------------------------------------------------------------------------------------------------


  energy-cutoff  :      700.00
  volume of cell :     1556.99
      direct lattice vectors                 reciprocal lattice vectors
    11.579192152 -0.007787382  0.013012176     0.086361959  0.000057996 -0.000097158
    -0.007780770 11.593090728  0.004062076     0.000058046  0.086258324 -0.000030558
     0.013045982  0.004100220 11.598730898    -0.000096907 -0.000030274  0.086216449

  length of vectors
    11.579202082 11.593094050 11.598738959     0.086362033  0.086258349  0.086216509


 
 old parameters found on file WAVECAR:
  energy-cutoff  :      700.00
  volume of cell :     1556.99
      direct lattice vectors                 reciprocal lattice vectors
    11.579192152 -0.007787382  0.013012176     0.086361959  0.000057996 -0.000097158
    -0.007780770 11.593090728  0.004062076     0.000058046  0.086258324 -0.000030558
     0.013045982  0.004100220 11.598730898    -0.000096907 -0.000030274  0.086216449

  length of vectors

 
 k-points in units of 2pi/SCALE and weight: Title                                   
   0.00000000  0.00000000  0.00000000       0.037
   0.02878732  0.00001933 -0.00003239       0.074
   0.00001935  0.02875277 -0.00001019       0.074
   0.02880667  0.02877211 -0.00004257       0.074
  -0.02876797  0.02873344  0.00002220       0.074
  -0.00003230 -0.00001009  0.02873882       0.074
   0.02875502  0.00000924  0.02870643       0.074
  -0.02881962 -0.00002942  0.02877120       0.074
  -0.00001295  0.02874268  0.02872863       0.074
   0.02877437  0.02876202  0.02869624       0.074
  -0.02880027  0.02872335  0.02876102       0.074
  -0.00005165 -0.02876287  0.02874900       0.074
   0.02873567 -0.02874353  0.02871662       0.074
  -0.02883897 -0.02878220  0.02878139       0.074
 
 k-points in reciprocal lattice and weights: Title                                   
   0.00000000  0.00000000  0.00000000       0.037
   0.33333333 -0.00000000  0.00000000       0.074
  -0.00000000  0.33333333  0.00000000       0.074
   0.33333333  0.33333333 -0.00000000       0.074
  -0.33333333  0.33333333 -0.00000000       0.074
  -0.00000000 -0.00000000  0.33333333       0.074
   0.33333333 -0.00000000  0.33333333       0.074
  -0.33333333  0.00000000  0.33333333       0.074
  -0.00000000  0.33333333  0.33333333       0.074
   0.33333333  0.33333333  0.33333333       0.074
  -0.33333333  0.33333333  0.33333333       0.074
  -0.00000000 -0.33333333  0.33333333       0.074
   0.33333333 -0.33333333  0.33333333       0.074
  -0.33333333 -0.33333333  0.33333333       0.074
 
 position of ions in fractional coordinates (direct lattice) 
   0.00953052  0.00958554  0.00890595
   0.00073055  0.98862958  0.32192285
   0.98673667  0.00066800  0.66697597
   0.98985824  0.32091303  0.00014345
   0.00684304  0.33338984  0.34348504
   0.00019253  0.34435737  0.65806526
   0.00048351  0.66717609  0.99909957
   0.99170612  0.67507412  0.34230585
   0.00028781  0.65700800  0.65417177
   0.31994614  0.00927029  0.99933435
   0.34263941  0.99130019  0.34208043
   0.33241667  0.99035503  0.65559764
   0.33276418  0.32377600  0.99055824
   0.32130354  0.33381558  0.33323493
   0.34360779  0.33404946  0.67696785
   0.34499060  0.66712863  0.00933779
   0.33269071  0.67833275  0.32412269
   0.34505904  0.67503813  0.66740562
   0.66646590  0.99960205  0.00010041
   0.65585787  0.00454803  0.34423253
   0.67037430  0.98945530  0.65590239
   0.67526948  0.34290837  0.99170648
   0.66622404  0.32025081  0.33395753
   0.65695632  0.33394151  0.67852066
   0.65617900  0.65447139  0.99995891
   0.67831344  0.66499294  0.34399444
   0.65783775  0.67632756  0.65888603
   0.00394255  0.16684225  0.99674287
   0.99850215  0.49941376  0.67340350
   0.00940857  0.83329565  0.33450698
   0.33089096  0.16721709  0.00408407
   0.32428109  0.83196516  0.33735577
   0.33809074  0.83291694  0.66570111
   0.67057070  0.16870485  0.33285039
   0.66713628  0.50092159  0.00335566
   0.65967397  0.83425395  0.67564829
   0.16647638  0.99147039  0.99607650
   0.16750394  0.33164412  0.33159407
   0.50005708  0.99852711  0.32406467
   0.49968936  0.34018540  0.65915172
   0.50053634  0.67037748  0.99258915
   0.49924524  0.65431491  0.67319271
   0.83486909  0.00088778  0.66736302
   0.83395142  0.33153018  0.00062868
   0.83449980  0.66434757  0.32468496
   0.99428551  0.99822247  0.16553207
   0.99629405  0.33496433  0.49902678
   0.99860518  0.66161796  0.50072439
   0.33376183  0.00710894  0.50094119
   0.33454355  0.33589724  0.83428885
   0.33199646  0.66718854  0.16496621
   0.66118904  0.99509268  0.49997000
   0.66106468  0.32828916  0.83426495
   0.66971104  0.66736840  0.49950532
   0.99053389  0.16767880  0.33186495
   0.00397095  0.16694077  0.67365756
   0.00102804  0.50407105  0.99647527
   0.00087177  0.49922205  0.32384158
   0.99209253  0.83027731  0.99905119
   0.00405754  0.83364633  0.66581103
   0.33767840  0.16931384  0.32270676
   0.33010119  0.16728871  0.67112767
   0.33150519  0.50007323  0.00070756
   0.33916214  0.49842120  0.33816916
   0.31948096  0.49926294  0.66174393
   0.33547252  0.83422301  0.99318309
   0.66152347  0.16284294  0.00918252
   0.66611511  0.16746451  0.66211367
   0.66097205  0.49788785  0.32707858
   0.68164786  0.49968387  0.66963281
   0.67335882  0.83599916  0.99404860
   0.66838973  0.83290996  0.32481914
   0.16691924  0.01569319  0.33027730
   0.16492885  0.00080010  0.67388225
   0.16575656  0.34300860  0.00644722
   0.16710846  0.32905550  0.66322663
   0.16388534  0.67166128  0.99502439
   0.16639261  0.65214425  0.33275328
   0.16619792  0.66929277  0.67060019
   0.50314248  0.99342702  0.00645138
   0.49943988  0.01209939  0.67500558
   0.49968470  0.33291925  0.00759583
   0.49906028  0.33285158  0.34033449
   0.50057452  0.66782783  0.33274544
   0.83030478  0.00122788  0.99046955
   0.83340666  0.99581078  0.33840917
   0.83309263  0.34143281  0.32498340
   0.83408953  0.32483858  0.67153686
   0.83663138  0.66756353  0.00697407
   0.83514295  0.67361151  0.67382426
   0.00558097  0.00586662  0.50092385
   0.99729600  0.99238072  0.83384951
   0.00087368  0.33510329  0.16721626
   0.00709214  0.33445846  0.83318764
   0.00935400  0.66566797  0.16160891
   0.99799427  0.67182013  0.83647683
   0.33012262  0.99433829  0.16534495
   0.34002972  0.00235017  0.83355261
   0.33796346  0.34231129  0.16776593
   0.32978543  0.32698061  0.49917553
   0.33157960  0.65978968  0.49940036
   0.32339949  0.66076227  0.83489343
   0.67807252  0.99527669  0.16239124
   0.66160192  0.01075880  0.83780347
   0.66071097  0.33155752  0.16743861
   0.67642657  0.33882602  0.49946673
   0.66284919  0.67353958  0.16533808
   0.67950429  0.66480701  0.83522116
 
 position of ions in cartesian coordinates  (Angst):
   0.11039735  0.11108837  0.10346062
   0.00496666 11.46258671  3.73792189
  11.43430961  0.00279487  7.74891715
  11.45926373  3.71266611  0.01584762
   0.08112395  3.86637374  3.98543385
   0.00813513  3.99486298  7.63412320
   0.01344176  7.73872572 11.59100348
  11.48236889  7.81987624  3.98595990
   0.00675492  7.61943335  7.59023487
   3.71768301  0.10907728 11.59521108
   3.96423726 11.49096740  3.97618402
   3.84996369 11.48137513  7.61244899
   3.86354395  3.75503468 11.49486360
   3.72218551  3.86881854  3.87063910
   3.98493316  3.87276563  7.85779596
   3.98964352  7.73143443  0.11550556
   3.85124020  7.86271134  3.76649632
   3.99895955  7.82582769  7.74829019
   7.70936038 11.58328767  0.01389730
   7.59875974  0.04902980  4.00121308
   7.76325098 11.46831391  7.62037759
   7.82934475  3.97417545 11.51271627
   7.71620121  3.70887786  3.88345346
   7.61327715  3.86908038  7.87988349
   7.60597588  7.58633630 11.60945111
   7.85363527  7.70545169  4.00142650
   7.62056320  7.83830547  7.65354900
   0.05735690  1.93827354 11.56168131
  11.56674762  5.78473441  7.82564732
   0.10682395  9.66177030  3.88336375
   3.83020225  1.93600282  0.05235489
   3.75284084  9.64390548  3.92049786
   3.91702161  9.65617832  7.72907074
   7.76769673  1.95195342  3.87005302
   7.72104541  5.80204793  0.04963705
   7.64081505  9.66921495  7.84863526
   1.93294243 11.49699387 11.55941692
   1.94130578  3.84483557  3.84959717
   5.78671548 11.57344992  3.76930179
   5.79195148  3.94261155  7.65320730
   5.80353976  7.77191889 11.52201068
   5.78454799  7.58440458  7.81733522
   9.67580916  0.00652699  7.75143114
   9.65391241  3.83696777  0.01949008
   9.66190022  7.69667438  3.77949080
  11.50741551 11.56541949  1.93695459
  11.54018423  3.87755952  5.80240195
  11.56442578  7.66447360  5.82344904
   3.87117230  0.08186947  5.81465393
   3.88201466  3.89490272  9.68240941
   3.84121172  7.73286828  1.92042883
   7.65481491 11.53310072  5.81166318
   7.66292447  3.80415877  9.68635013
   7.75603673  7.73369518  5.80505314
  11.47260712  1.93756255  3.86278243
   0.05347002  1.93809073  7.81430255
   0.02098184  5.84781912 11.55990941
   0.01043489  5.78884754  3.75819059
  11.49420345  9.62185066 11.60400787
   0.04918280  9.66723596  7.72600215
   3.91293570  1.96156420  3.74807054
   3.82975895  1.93957432  7.78920415
   3.83468057  5.79481566  0.01455175
   3.92775720  5.77698758  3.92877095
   3.70407990  5.78822593  7.68157497
   3.89096694  9.67268285 11.52741726
   7.65876012  1.88273907  0.11577493
   7.72040977  1.93895873  7.68902616
   7.65391543  5.76825292  3.80431962
   7.89777963  5.79031785  7.77779024
   7.80341483  9.69064625 11.54186001
   7.73717005  9.65212753  3.77957036
   1.93697665  0.18198693  3.83303325
   1.91852808  0.01075428  7.81832825
   1.91674230  3.97526545  0.07832971
   1.94107316  3.81618829  7.69609827
   1.90541486  7.78943376 11.54588098
   1.92595892  7.56043601  3.86432988
   1.92797871  7.76062715  7.78299249
   5.81833796 11.51299790  0.08541022
   5.79182228  0.13914769  7.83575605
   5.78345391  3.85570294  0.09595627
   5.78056509  3.85628768  3.95529406
   5.79539338  7.73965476  3.86865115
   9.62717066  0.01183017 11.49899880
   9.64684258 11.53942224  3.94000638
   9.64812280  3.95310638  3.78162231
   9.66431630  3.76214120  7.80114820
   9.68241230  7.73263800  0.09448844
   9.67383013  7.80549865  7.82910959
   0.07111254  0.07002271  5.81017736
  11.55103895 11.50041241  9.68860415
   0.00969060  3.88556169  1.94086898
   0.09038863  3.88076828  9.66537016
   0.10524067  7.71773900  1.87728401
  11.56165285  7.78412974  9.71778466
   3.81697367 11.52556113  1.92612626
   3.94812568  0.02801560  9.67258649
   3.91286911  3.96650182  1.95166004
   3.82261695  3.79019449  5.79542205
   3.84080536  7.64846717  5.79940506
   3.75045557  7.66118181  9.69059647
   7.84590657 11.53371835  1.89639843
   7.67166197  0.12301083  9.72610955
   7.65010390  3.83931771  1.95201952
   7.83635297  3.92482107  5.80335827
   7.67217452  7.80392158  1.92907295
   7.87383430  7.70530099  9.69904781
 


--------------------------------------------------------------------------------------------------------


 k-point   1 :   0.0000 0.0000 0.0000  plane waves:   65323
 k-point   2 :   0.3333-0.0000 0.0000  plane waves:   65421
 k-point   3 :  -0.0000 0.3333 0.0000  plane waves:   65428
 k-point   4 :   0.3333 0.3333-0.0000  plane waves:   65481
 k-point   5 :  -0.3333 0.3333-0.0000  plane waves:   65462
 k-point   6 :  -0.0000-0.0000 0.3333  plane waves:   65434
 k-point   7 :   0.3333-0.0000 0.3333  plane waves:   65453
 k-point   8 :  -0.3333 0.0000 0.3333  plane waves:   65470
 k-point   9 :  -0.0000 0.3333 0.3333  plane waves:   65468
 k-point  10 :   0.3333 0.3333 0.3333  plane waves:   65506
 k-point  11 :  -0.3333 0.3333 0.3333  plane waves:   65506
 k-point  12 :  -0.0000-0.3333 0.3333  plane waves:   65484
 k-point  13 :   0.3333-0.3333 0.3333  plane waves:   65494
 k-point  14 :  -0.3333-0.3333 0.3333  plane waves:   65522

 maximum and minimum number of plane-waves per node :      8239     8105

 maximum number of plane-waves:     65522
 maximum index in each direction: 
   IXMAX=   25   IYMAX=   25   IZMAX=   25
   IXMIN=  -25   IYMIN=  -25   IZMIN=  -25


 real space projection operators:
  total allocation   :      54052.20 KBytes
  max/ min on nodes  :       7372.38       6130.39


 parallel 3D FFT for wavefunctions:
    minimum data exchange during FFTs selected (reduces bandwidth)
 parallel 3D FFT for charge:
    minimum data exchange during FFTs selected (reduces bandwidth)


 total amount of memory used by VASP MPI-rank0   297957. kBytes
=======================================================================

   base      :      30000. kBytes
   nonlr-proj:      25316. kBytes
   fftplans  :      18873. kBytes
   grid      :      21088. kBytes
   one-center:        435. kBytes
   wavefun   :     202245. kBytes
 
     INWAV:  cpu time     34.3412: real time     34.4444
 Broyden mixing: mesh for mixing (old mesh)
   NGX = 49   NGY = 51   NGZ = 51
  (NGX  =200   NGY  =200   NGZ  =200)
  gives a total of 127449 points

 charge density for first step will be calculated from the start-wavefunctions


--------------------------------------------------------------------------------------------------------


 Maximum index for non-local projection operator         1367
 Maximum index for augmentation-charges         4049 (set IRDMAX)


--------------------------------------------------------------------------------------------------------


 initial charge from wavefunction
 First call to EWALD:  gamma=   0.153
 Maximum number of real-space cells 3x 3x 3
 Maximum number of reciprocal cells 3x 3x 3

    FEWALD:  cpu time      0.0071: real time      0.0071


--------------------------------------- Iteration      1(   1)  ---------------------------------------


    POTLOK:  cpu time      0.1866: real time      0.1989
    SETDIJ:  cpu time      1.0411: real time      1.0466
     EDDAV:  cpu time    115.8901: real time    116.2315
       DOS:  cpu time      0.0204: real time      0.0205
    CHARGE:  cpu time      4.4197: real time      4.4307
    MIXING:  cpu time      0.0080: real time      0.0084
    --------------------------------------------
      LOOP:  cpu time    121.5659: real time    121.9365

 eigenvalue-minimisations  : 37400
 total energy-change (2. order) :-0.7209826E+03  (-0.6912845E-06)
 number of electron     810.0000011 magnetization       0.0000000
 augmentation part      209.1291644 magnetization       0.0000000

 Broyden mixing:
  rms(total) = 0.62768E-03    rms(broyden)= 0.62299E-03
  rms(prec ) = 0.83205E-03
  weight for this iteration     100.00

 Free energy of the ion-electron system (eV)
  ---------------------------------------------------
  alpha Z        PSCENC =      2561.73669347
  Ewald energy   TEWEN  =    -43288.48425505
  -Hartree energ DENC   =    -27731.72458423
  -exchange      EXHF   =         0.00000000
  -V(xc)+E(xc)   XCENC  =      3779.48837383
  PAW double counting   =     60873.32926306   -61288.88714711
  entropy T*S    EENTRO =        -0.00000000
  eigenvalues    EBANDS =    -10896.88302137
  atomic energy  EATOM  =     75270.44210491
  Solvation  Ediel_sol  =         0.00000000
  ---------------------------------------------------
  free energy    TOTEN  =      -720.98257249 eV

  energy without entropy =     -720.98257249  energy(sigma->0) =     -720.98257249


--------------------------------------------------------------------------------------------------------




--------------------------------------- Iteration      1(   2)  ---------------------------------------


    POTLOK:  cpu time      0.2043: real time      0.2657
    SETDIJ:  cpu time      1.0529: real time      1.0556
     EDDAV:  cpu time     95.3873: real time     95.6271
       DOS:  cpu time      0.0195: real time      0.0195
    --------------------------------------------
      LOOP:  cpu time     96.6640: real time     96.9679

 eigenvalue-minimisations  : 29680
 total energy-change (2. order) : 0.8362258E-06  (-0.3471758E-06)
 number of electron     810.0000011 magnetization       0.0000000
 augmentation part      209.1291644 magnetization       0.0000000

 Free energy of the ion-electron system (eV)
  ---------------------------------------------------
  alpha Z        PSCENC =      2561.73669347
  Ewald energy   TEWEN  =    -43288.48425505
  -Hartree energ DENC   =    -27731.77597712
  -exchange      EXHF   =         0.00000000
  -V(xc)+E(xc)   XCENC  =      3779.49218089
  PAW double counting   =     60873.37867636   -61288.94155941
  entropy T*S    EENTRO =        -0.00000000
  eigenvalues    EBANDS =    -10896.83043570
  atomic energy  EATOM  =     75270.44210491
  Solvation  Ediel_sol  =         0.00000000
  ---------------------------------------------------
  free energy    TOTEN  =      -720.98257165 eV

  energy without entropy =     -720.98257165  energy(sigma->0) =     -720.98257165


--------------------------------------------------------------------------------------------------------




 average (electrostatic) potential at core
  the test charge radii are     1.0397  0.7215  0.7167
  (the norm of the test charge is              1.0000)
       1 -58.4342       2 -58.6682       3 -59.1316       4 -58.6819       5 -59.0234
       6 -58.9012       7 -60.3739       8 -58.4184       9 -58.7235      10 -58.7444
      11 -58.3881      12 -58.6371      13 -58.8299      14 -59.3491      15 -58.8127
      16 -58.7775      17 -58.7021      18 -58.6404      19 -60.3462      20 -58.3807
      21 -58.3665      22 -58.4943      23 -59.1460      24 -58.7632      25 -58.7211
      26 -58.6035      27 -58.3723      28 -74.1736      29 -74.1719      30 -73.9971
      31 -74.1345      32 -74.0177      33 -73.9818      34 -74.2355      35 -74.1983
      36 -73.8475      37 -74.1801      38 -74.4507      39 -73.8585      40 -74.1077
      41 -74.2634      42 -73.9294      43 -74.2213      44 -74.0453      45 -73.9262
      46 -74.0272      47 -74.2506      48 -74.1670      49 -73.9374      50 -74.1740
      51 -74.0672      52 -74.0125      53 -74.0634      54 -73.9211      55 -78.9173
      56 -79.0145      57 -79.5503      58 -78.9163      59 -79.5490      60 -79.0217
      61 -79.0328      62 -78.8119      63 -78.9290      64 -79.0176      65 -78.8312
      66 -78.9464      67 -79.5134      68 -78.7733      69 -78.8114      70 -78.7654
      71 -79.5240      72 -78.8430      73 -78.7700      74 -78.8127      75 -78.9151
      76 -78.9189      77 -79.5692      78 -78.8192      79 -78.8274      80 -79.5197
      81 -78.8421      82 -78.9013      83 -79.0853      84 -78.7793      85 -79.5244
      86 -78.7657      87 -79.1458      88 -78.9318      89 -79.5711      90 -78.8201
      91 -78.9618      92 -79.0127      93 -78.9312      94 -78.9519      95 -79.5243
      96 -79.5201      97 -78.8306      98 -78.8208      99 -79.0813     100 -79.0696
     101 -78.7793     102 -78.8130     103 -79.4560     104 -79.4572     105 -79.0096
     106 -78.9647     107 -78.8389     108 -78.8456
 
 
 
 E-fermi :  -0.8742     XC(G=0):  -8.9908     alpha+bet : -7.6595

 Fermi energy:        -0.8742432709

 spin component 1

 k-point     1 :       0.0000    0.0000    0.0000
  band No.  band energies     occupation 
      1     -36.2409      1.00000
      2     -36.2397      1.00000
      3     -36.2370      1.00000
      4     -36.2085      1.00000
      5     -36.2076      1.00000
      6     -36.2020      1.00000
      7     -35.2871      1.00000
      8     -35.2821      1.00000
      9     -35.1744      1.00000
     10     -35.1067      1.00000
     11     -35.1010      1.00000
     12     -35.0896      1.00000
     13     -35.0834      1.00000
     14     -34.9807      1.00000
     15     -34.9571      1.00000
     16     -34.9428      1.00000
     17     -34.9027      1.00000
     18     -34.8762      1.00000
     19     -34.8727      1.00000
     20     -34.8044      1.00000
     21     -34.7837      1.00000
     22     -34.7811      1.00000
     23     -34.7710      1.00000
     24     -34.7575      1.00000
     25     -34.7366      1.00000
     26     -34.7359      1.00000
     27     -34.7290      1.00000
     28     -34.7231      1.00000
     29     -34.7184      1.00000
     30     -34.7158      1.00000
     31     -34.7088      1.00000
     32     -34.6958      1.00000
     33     -34.6820      1.00000
     34     -34.6723      1.00000
     35     -34.6700      1.00000
     36     -34.6681      1.00000
     37     -34.6614      1.00000
     38     -34.6529      1.00000
     39     -34.6515      1.00000
     40     -34.6485      1.00000
     41     -34.6416      1.00000
     42     -34.6239      1.00000
     43     -34.6225      1.00000
     44     -34.6222      1.00000
     45     -34.6152      1.00000
     46     -34.6108      1.00000
     47     -34.6071      1.00000
     48     -34.6051      1.00000
     49     -34.5890      1.00000
     50     -34.5854      1.00000
     51     -34.5700      1.00000
     52     -34.5665      1.00000
     53     -34.5489      1.00000
     54     -34.5460      1.00000
     55     -34.5338      1.00000
     56     -34.5217      1.00000
     57     -34.5069      1.00000
     58     -34.5011      1.00000
     59     -34.4732      1.00000
     60     -34.4652      1.00000
     61     -34.4517      1.00000
     62     -34.4155      1.00000
     63     -34.4075      1.00000
     64     -34.3879      1.00000
     65     -34.3779      1.00000
     66     -34.3768      1.00000
     67     -34.3647      1.00000
     68     -34.3535      1.00000
     69     -34.3334      1.00000
     70     -34.3325      1.00000
     71     -34.3223      1.00000
     72     -34.3110      1.00000
     73     -34.3085      1.00000
     74     -34.3007      1.00000
     75     -34.3000      1.00000
     76     -34.2840      1.00000
     77     -34.2821      1.00000
     78     -34.2802      1.00000
     79     -34.2578      1.00000
     80     -34.2491      1.00000
     81     -34.2335      1.00000
     82     -23.5701      1.00000
     83     -23.4988      1.00000
     84     -23.2837      1.00000
     85     -23.2444      1.00000
     86     -23.2158      1.00000
     87     -23.1768      1.00000
     88     -23.0722      1.00000
     89     -23.0453      1.00000
     90     -23.0319      1.00000
     91     -22.9947      1.00000
     92     -22.9757      1.00000
     93     -22.9712      1.00000
     94     -22.9355      1.00000
     95     -22.9264      1.00000
     96     -22.9104      1.00000
     97     -22.8226      1.00000
     98     -22.8057      1.00000
     99     -22.7878      1.00000
    100     -22.7598      1.00000
    101     -22.7414      1.00000
    102     -22.7198      1.00000
    103     -22.7123      1.00000
    104     -22.6707      1.00000
    105     -22.6649      1.00000
    106     -22.6605      1.00000
    107     -22.6401      1.00000
    108     -22.6264      1.00000
    109     -22.6104      1.00000
    110     -22.5944      1.00000
    111     -22.5679      1.00000
    112     -22.5473      1.00000
    113     -22.5418      1.00000
    114     -22.5278      1.00000
    115     -22.5065      1.00000
    116     -22.4896      1.00000
    117     -22.4767      1.00000
    118     -22.4721      1.00000
    119     -22.4544      1.00000
    120     -22.4476      1.00000
    121     -22.4361      1.00000
    122     -22.4267      1.00000
    123     -22.4057      1.00000
    124     -22.4011      1.00000
    125     -22.3980      1.00000
    126     -22.3731      1.00000
    127     -22.3540      1.00000
    128     -22.3463      1.00000
    129     -22.3299      1.00000
    130     -22.3091      1.00000
    131     -22.3081      1.00000
    132     -22.2890      1.00000
    133     -22.2753      1.00000
    134     -22.2610      1.00000
    135     -22.2518      1.00000
    136     -16.9408      1.00000
    137     -16.8305      1.00000
    138     -16.8093      1.00000
    139     -16.7827      1.00000
    140     -16.7458      1.00000
    141     -16.7396      1.00000
    142     -16.7181      1.00000
    143     -16.6986      1.00000
    144     -16.6810      1.00000
    145     -16.6366      1.00000
    146     -16.6100      1.00000
    147     -16.6010      1.00000
    148     -16.5854      1.00000
    149     -16.5691      1.00000
    150     -16.5431      1.00000
    151     -16.5110      1.00000
    152     -16.5085      1.00000
    153     -16.4819      1.00000
    154     -16.4733      1.00000
    155     -16.4437      1.00000
    156     -16.4327      1.00000
    157     -16.4076      1.00000
    158     -16.3759      1.00000
    159     -16.3328      1.00000
    160     -16.2950      1.00000
    161     -16.2726      1.00000
    162     -16.2442      1.00000
    163      -6.9167      1.00000
    164      -6.8835      1.00000
    165      -6.8133      1.00000
    166      -6.7646      1.00000
    167      -6.7604      1.00000
    168      -6.7085      1.00000
    169      -6.4348      1.00000
    170      -6.3551      1.00000
    171      -6.3420      1.00000
    172      -6.3062      1.00000
    173      -6.2834      1.00000
    174      -6.2252      1.00000
    175      -6.1993      1.00000
    176      -6.1953      1.00000
    177      -6.1713      1.00000
    178      -6.1538      1.00000
    179      -6.1066      1.00000
    180      -6.0927      1.00000
    181      -6.0744      1.00000
    182      -6.0550      1.00000
    183      -6.0222      1.00000
    184      -6.0080      1.00000
    185      -5.9958      1.00000
    186      -5.9788      1.00000
    187      -5.9633      1.00000
    188      -5.9258      1.00000
    189      -5.9048      1.00000
    190      -5.8787      1.00000
    191      -5.8699      1.00000
    192      -5.8548      1.00000
    193      -5.8365      1.00000
    194      -5.8212      1.00000
    195      -5.7918      1.00000
    196      -5.7805      1.00000
    197      -5.7173      1.00000
    198      -5.7009      1.00000
    199      -5.6756      1.00000
    200      -5.6682      1.00000
    201      -5.6526      1.00000
    202      -5.6375      1.00000
    203      -5.6349      1.00000
    204      -5.6106      1.00000
    205      -5.5975      1.00000
    206      -5.5804      1.00000
    207      -5.5606      1.00000
    208      -5.5492      1.00000
    209      -5.5348      1.00000
    210      -5.5291      1.00000
    211      -5.5208      1.00000
    212      -5.5089      1.00000
    213      -5.4972      1.00000
    214      -5.4903      1.00000
    215      -5.4653      1.00000
    216      -5.4507      1.00000
    217      -5.4297      1.00000
    218      -5.4151      1.00000
    219      -5.3770      1.00000
    220      -5.3508      1.00000
    221      -5.3220      1.00000
    222      -5.2981      1.00000
    223      -5.0742      1.00000
    224      -5.0581      1.00000
    225      -5.0461      1.00000
    226      -4.9569      1.00000
    227      -4.9376      1.00000
    228      -4.9174      1.00000
    229      -4.9075      1.00000
    230      -4.8996      1.00000
    231      -4.8756      1.00000
    232      -4.8681      1.00000
    233      -4.8594      1.00000
    234      -4.8439      1.00000
    235      -4.8207      1.00000
    236      -4.7943      1.00000
    237      -4.7865      1.00000
    238      -4.7832      1.00000
    239      -4.7755      1.00000
    240      -4.7577      1.00000
    241      -4.7404      1.00000
    242      -4.7359      1.00000
    243      -4.7104      1.00000
    244      -4.6801      1.00000
    245      -4.6658      1.00000
    246      -4.6419      1.00000
    247      -4.6213      1.00000
    248      -4.6141      1.00000
    249      -4.5745      1.00000
    250      -4.5530      1.00000
    251      -4.5432      1.00000
    252      -4.4974      1.00000
    253      -4.4797      1.00000
    254      -4.3779      1.00000
    255      -4.3383      1.00000
    256      -4.3163      1.00000
    257      -4.2789      1.00000
    258      -4.2624      1.00000
    259      -4.2533      1.00000
    260      -4.2320      1.00000
    261      -4.2074      1.00000
    262      -4.2035      1.00000
    263      -4.1586      1.00000
    264      -4.1469      1.00000
    265      -4.1455      1.00000
    266      -4.1046      1.00000
    267      -4.0932      1.00000
    268      -4.0861      1.00000
    269      -4.0770      1.00000
    270      -4.0670      1.00000
    271      -4.0579      1.00000
    272      -4.0331      1.00000
    273      -4.0184      1.00000
    274      -4.0098      1.00000
    275      -4.0009      1.00000
    276      -3.9835      1.00000
    277      -3.9791      1.00000
    278      -3.9755      1.00000
    279      -3.9560      1.00000
    280      -3.9448      1.00000
    281      -3.9211      1.00000
    282      -3.9166      1.00000
    283      -3.9102      1.00000
    284      -3.8820      1.00000
    285      -3.8652      1.00000
    286      -3.8612      1.00000
    287      -3.8483      1.00000
    288      -3.8123      1.00000
    289      -3.7978      1.00000
    290      -3.7854      1.00000
    291      -3.7566      1.00000
    292      -3.7374      1.00000
    293      -3.7329      1.00000
    294      -3.7212      1.00000
    295      -3.7096      1.00000
    296      -3.6899      1.00000
    297      -3.6807      1.00000
    298      -3.6648      1.00000
    299      -3.6505      1.00000
    300      -3.6331      1.00000
    301      -3.6132      1.00000
    302      -3.5964      1.00000
    303      -3.5817      1.00000
    304      -3.5713      1.00000
    305      -3.5537      1.00000
    306      -3.5372      1.00000
    307      -3.5314      1.00000
    308      -3.5183      1.00000
    309      -3.5131      1.00000
    310      -3.5095      1.00000
    311      -3.5002      1.00000
    312      -3.4946      1.00000
    313      -3.4743      1.00000
    314      -3.4703      1.00000
    315      -3.4543      1.00000
    316      -3.4478      1.00000
    317      -3.4379      1.00000
    318      -3.4265      1.00000
    319      -3.4063      1.00000
    320      -3.3988      1.00000
    321      -3.3947      1.00000
    322      -3.3858      1.00000
    323      -3.3670      1.00000
    324      -3.3631      1.00000
    325      -3.3595      1.00000
    326      -3.3322      1.00000
    327      -3.3154      1.00000
    328      -3.3123      1.00000
    329      -3.2917      1.00000
    330      -3.2690      1.00000
    331      -3.2552      1.00000
    332      -3.2401      1.00000
    333      -3.2344      1.00000
    334      -3.2278      1.00000
    335      -3.2116      1.00000
    336      -3.2030      1.00000
    337      -3.1875      1.00000
    338      -3.1682      1.00000
    339      -3.1617      1.00000
    340      -3.1584      1.00000
    341      -3.1432      1.00000
    342      -3.1196      1.00000
    343      -3.1032      1.00000
    344      -3.0838      1.00000
    345      -3.0671      1.00000
    346      -3.0580      1.00000
    347      -3.0307      1.00000
    348      -3.0096      1.00000
    349      -2.9995      1.00000
    350      -2.9915      1.00000
    351      -2.9444      1.00000
    352      -2.8142      1.00000
    353      -2.7609      1.00000
    354      -2.7512      1.00000
    355      -2.7168      1.00000
    356      -2.6403      1.00000
    357      -2.6211      1.00000
    358      -2.5965      1.00000
    359      -2.5841      1.00000
    360      -2.5546      1.00000
    361      -2.5036      1.00000
    362      -2.4925      1.00000
    363      -2.4535      1.00000
    364      -2.4249      1.00000
    365      -2.4119      1.00000
    366      -2.3994      1.00000
    367      -2.3816      1.00000
    368      -2.3429      1.00000
    369      -2.3162      1.00000
    370      -2.2899      1.00000
    371      -2.2819      1.00000
    372      -2.2674      1.00000
    373      -2.2412      1.00000
    374      -2.2049      1.00000
    375      -2.1804      1.00000
    376      -2.1486      1.00000
    377      -2.0343      1.00000
    378      -1.9389      1.00000
    379      -1.9378      1.00000
    380      -1.8633      1.00000
    381      -1.8449      1.00000
    382      -1.8184      1.00000
    383      -1.7182      1.00000
    384      -1.6869      1.00000
    385      -1.6640      1.00000
    386      -1.6135      1.00000
    387      -1.5778      1.00000
    388      -1.5669      1.00000
    389      -1.5373      1.00000
    390      -1.4766      1.00000
    391      -1.4681      1.00000
    392      -1.4539      1.00000
    393      -1.4235      1.00000
    394      -1.3952      1.00000
    395      -1.3671      1.00000
    396      -1.3415      1.00000
    397      -1.1709      1.00000
    398      -1.1258      1.00000
    399      -1.0993      1.00000
    400      -1.0479      1.00000
    401      -1.0346      1.00000
    402      -1.0064      1.00000
    403      -0.9862      1.00000
    404      -0.9677      1.00000
    405      -0.9238      1.00000
    406       1.5820      0.00000
    407       1.6709      0.00000
    408       1.6961      0.00000
    409       1.7181      0.00000
    410       1.7249      0.00000
    411       1.8022      0.00000
    412       1.9243      0.00000
    413       2.0465      0.00000
    414       2.0520      0.00000
    415       2.1502      0.00000
    416       2.1839      0.00000
    417       2.2991      0.00000
    418       2.3133      0.00000
    419       2.3235      0.00000
    420       2.3441      0.00000
    421       2.5116      0.00000
    422       2.5577      0.00000
    423       2.6080      0.00000
    424       2.6507      0.00000
    425       2.6553      0.00000
    426       2.6752      0.00000
    427       2.6890      0.00000
    428       2.6997      0.00000
    429       2.7132      0.00000
    430       2.7172      0.00000
    431       2.7271      0.00000
    432       2.7436      0.00000
    433       2.7590      0.00000
    434       2.7756      0.00000
    435       2.7870      0.00000
    436       2.7976      0.00000
    437       2.8131      0.00000
    438       2.8625      0.00000
    439       2.8740      0.00000
    440       2.8896      0.00000
    441       2.9074      0.00000
    442       2.9197      0.00000
    443       2.9388      0.00000
    444       2.9494      0.00000
    445       2.9561      0.00000
    446       2.9929      0.00000
    447       3.0107      0.00000
    448       3.0280      0.00000
    449       3.0512      0.00000
    450       3.1012      0.00000
    451       3.1302      0.00000
    452       3.1610      0.00000
    453       3.1808      0.00000
    454       3.1919      0.00000
    455       3.2283      0.00000
    456       3.2639      0.00000
    457       3.2687      0.00000
    458       3.2816      0.00000
    459       3.3038      0.00000
    460       3.3278      0.00000
    461       3.3594      0.00000
    462       3.3842      0.00000
    463       3.3975      0.00000
    464       3.4243      0.00000
    465       3.4467      0.00000
    466       3.4749      0.00000
    467       3.5274      0.00000
    468       3.5536      0.00000
    469       3.5641      0.00000
    470       3.6047      0.00000
    471       3.6337      0.00000
    472       3.6584      0.00000
    473       3.6858      0.00000
    474       3.6968      0.00000
    475       3.7087      0.00000
    476       3.7241      0.00000
    477       3.7425      0.00000
    478       3.7677      0.00000
    479       3.7860      0.00000
    480       3.8012      0.00000
    481       3.8378      0.00000
    482       3.8392      0.00000
    483       3.8633      0.00000
    484       3.8744      0.00000
    485       3.8866      0.00000
    486       3.9041      0.00000
    487       3.9314      0.00000
    488       3.9423      0.00000
    489       3.9667      0.00000
    490       3.9941      0.00000
    491       4.0244      0.00000
    492       4.0457      0.00000
    493       4.0515      0.00000
    494       4.0672      0.00000
    495       4.0955      0.00000
    496       4.1182      0.00000
    497       4.1337      0.00000
    498       4.1524      0.00000
    499       4.1886      0.00000
    500       4.1995      0.00000
    501       4.2185      0.00000
    502       4.2435      0.00000
    503       4.2985      0.00000
    504       4.3108      0.00000
    505       4.3258      0.00000
    506       4.3717      0.00000
    507       4.5013      0.00000
    508       4.5426      0.00000
    509       4.5776      0.00000
    510       4.6595      0.00000
    511       4.6999      0.00000
    512       4.7701      0.00000
    513       4.9855      0.00000
    514       5.0569      0.00000
    515       5.1485      0.00000
    516       5.2161      0.00000
    517       5.2372      0.00000
    518       5.3439      0.00000
    519       5.4582      0.00000
    520       5.5133      0.00000
    521       5.5396      0.00000
    522       5.5639      0.00000
    523       5.6406      0.00000
    524       5.6877      0.00000
    525       5.8000      0.00000
    526       5.8412      0.00000
[...]
      3.98493      3.87277      7.85780        -0.000658      0.000588     -0.000210
      3.98964      7.73143      0.11551         0.002107     -0.001120      0.000492
      3.85124      7.86271      3.76650         0.001229      0.000021     -0.001238
      3.99896      7.82583      7.74829         0.002845      0.001761     -0.000936
      7.70936     11.58329      0.01390        -0.002022      0.000272      0.001247
      7.59876      0.04903      4.00121        -0.002782      0.000798      0.001832
      7.76325     11.46831      7.62038         0.000357     -0.000838      0.002138
      7.82934      3.97418     11.51272         0.000806     -0.001828     -0.000297
      7.71620      3.70888      3.88345         0.000136      0.000436      0.001705
      7.61328      3.86908      7.87988        -0.001287     -0.001303     -0.000327
      7.60598      7.58634     11.60945         0.000770     -0.001525      0.000655
      7.85364      7.70545      4.00143        -0.000022      0.000038      0.000873
      7.62056      7.83831      7.65355         0.002355     -0.000662      0.002017
      0.05736      1.93827     11.56168         0.003440      0.000624     -0.000137
     11.56675      5.78473      7.82565         0.000298      0.002334     -0.000142
      0.10682      9.66177      3.88336        -0.001587     -0.000404     -0.001408
      3.83020      1.93600      0.05235        -0.001605     -0.001439      0.000264
      3.75284      9.64391      3.92050         0.001545      0.000713     -0.001486
      3.91702      9.65618      7.72907         0.004644      0.000673     -0.000357
      7.76770      1.95195      3.87005        -0.000373     -0.000945      0.003852
      7.72105      5.80205      0.04964        -0.000297     -0.003479      0.001466
      7.64082      9.66921      7.84864         0.000429     -0.001828      0.003819
      1.93294     11.49699     11.55942        -0.001346     -0.002620      0.000491
      1.94131      3.84484      3.84960        -0.000554     -0.001012      0.002862
      5.78672     11.57345      3.76930         0.000190      0.002182     -0.000729
      5.79195      3.94261      7.65321        -0.001159     -0.000467      0.002080
      5.80354      7.77192     11.52201         0.000636     -0.001582     -0.001024
      5.78455      7.58440      7.81734         0.001170      0.000827     -0.003816
      9.67581      0.00653      7.75143         0.001008     -0.002513     -0.001942
      9.65391      3.83697      0.01949        -0.000906     -0.002513     -0.002614
      9.66190      7.69667      3.77949         0.000142      0.003607     -0.001058
     11.50742     11.56542      1.93695        -0.003559      0.002539      0.002619
     11.54018      3.87756      5.80240        -0.001335     -0.000950      0.002024
     11.56443      7.66447      5.82345         0.003626     -0.002140     -0.005385
      3.87117      0.08187      5.81465         0.000077     -0.000242     -0.000611
      3.88201      3.89490      9.68241        -0.002697     -0.001211     -0.000257
      3.84121      7.73287      1.92043         0.004608      0.000396     -0.000446
      7.65481     11.53310      5.81166        -0.003292     -0.002858      0.000550
      7.66292      3.80416      9.68635        -0.000865     -0.001940      0.000859
      7.75604      7.73370      5.80505         0.003418      0.001098      0.000168
     11.47261      1.93756      3.86278         0.001666     -0.001246      0.000665
      0.05347      1.93809      7.81430        -0.001147      0.000582     -0.006709
      0.02098      5.84782     11.55991         0.000775     -0.000347      0.004524
      0.01043      5.78885      3.75819         0.000305      0.000074      0.002140
     11.49420      9.62185     11.60401        -0.004627     -0.000321      0.001346
      0.04918      9.66724      7.72600         0.002091      0.000429     -0.005263
      3.91294      1.96156      3.74807        -0.001170     -0.000849      0.000515
      3.82976      1.93957      7.78920        -0.000456      0.000666     -0.001073
      3.83468      5.79482      0.01455        -0.000034     -0.000965      0.000706
      3.92776      5.77699      3.92877        -0.001544      0.000114     -0.003379
      3.70408      5.78823      7.68157         0.002872      0.002144      0.000673
      3.89097      9.67268     11.52742         0.001753     -0.000288     -0.000843
      7.65876      1.88274      0.11577        -0.003651      0.000732      0.000730
      7.72041      1.93896      7.68903         0.001875     -0.000089     -0.003219
      7.65392      5.76825      3.80432         0.003568      0.000926      0.005882
      7.89778      5.79032      7.77779        -0.002795     -0.000031      0.000252
      7.80341      9.69065     11.54186         0.000109      0.000517      0.000976
      7.73717      9.65213      3.77957        -0.002491      0.000136      0.001053
      1.93698      0.18199      3.83303        -0.001480     -0.004141     -0.000048
      1.91853      0.01075      7.81833         0.000123     -0.002585     -0.005192
      1.91674      3.97527      0.07833        -0.000206     -0.000117     -0.002391
      1.94107      3.81619      7.69610        -0.000578      0.003716      0.000676
      1.90541      7.78943     11.54588         0.000300     -0.003017     -0.000296
      1.92596      7.56044      3.86433         0.000615      0.003833     -0.002572
      1.92798      7.76063      7.78299         0.003163      0.001510     -0.004657
      5.81834     11.51300      0.08541        -0.002048      0.005046      0.001263
      5.79182      0.13915      7.83576        -0.000076      0.001751     -0.000300
      5.78345      3.85570      0.09596        -0.000430     -0.000591     -0.001118
      5.78057      3.85629      3.95529         0.000617      0.000782     -0.000711
      5.79539      7.73965      3.86865         0.001537      0.001732      0.004683
      9.62717      0.01183     11.49900        -0.002323      0.008305      0.002059
      9.64684     11.53942      3.94001        -0.001369     -0.001448      0.004420
      9.64812      3.95311      3.78162         0.000865     -0.003335      0.004960
      9.66432      3.76214      7.80115        -0.000656      0.004482      0.004452
      9.68241      7.73264      0.09449         0.000174     -0.003948      0.001554
      9.67383      7.80550      7.82911         0.002207      0.002247     -0.005624
      0.07111      0.07002      5.81018         0.001808      0.002432     -0.002381
     11.55104     11.50041      9.68860         0.000732      0.002893     -0.002139
      0.00969      3.88556      1.94087        -0.001743     -0.000795      0.001568
      0.09039      3.88077      9.66537        -0.000732     -0.000506      0.000056
      0.10524      7.71774      1.87728         0.000262      0.000065     -0.000078
     11.56165      7.78413      9.71778        -0.000181      0.000240     -0.000540
      3.81697     11.52556      1.92613        -0.005048     -0.002528     -0.000553
      3.94813      0.02802      9.67259        -0.003523      0.001821     -0.001296
      3.91287      3.96650      1.95166        -0.001819     -0.005497     -0.000509
      3.82262      3.79019      5.79542         0.001394     -0.000013      0.000530
      3.84081      7.64847      5.79941         0.003188      0.001240     -0.000931
      3.75046      7.66118      9.69060         0.003549      0.003958     -0.001334
      7.84591     11.53372      1.89640        -0.002868      0.000452      0.001570
      7.67166      0.12301      9.72611        -0.000419     -0.000875      0.001162
      7.65010      3.83932      1.95202         0.004875      0.001025      0.001394
      7.83635      3.92482      5.80336        -0.000093      0.002517      0.001775
      7.67217      7.80392      1.92907        -0.004044     -0.003608      0.002324
      7.87383      7.70530      9.69905         0.002100     -0.006226     -0.000249
 -----------------------------------------------------------------------------------
    total drift:                                0.000038      0.006731      0.005589


--------------------------------------------------------------------------------------------------------



  FREE ENERGIE OF THE ION-ELECTRON SYSTEM (eV)
  ---------------------------------------------------
  free  energy   TOTEN  =      -720.98257165 eV

  energy  without entropy=     -720.98257165  energy(sigma->0) =     -720.98257165
 


--------------------------------------------------------------------------------------------------------


    POTLOK:  cpu time      1.2173: real time      1.2206


--------------------------------------------------------------------------------------------------------


 Quasi-Newton relaxation of ions (Broydens 2nd method)
  g(Force)  = 0.716E-04   g(Stress)= 0.143E-03

 Reset! Starting new Quasi-Newton update for ions 


--------------------------------------------------------------------------------------------------------


  
 reached required accuracy - stopping structural energy minimisation
 writing wavefunctions
     LOOP+:  cpu time    373.3485: real time    377.1721
    4ORBIT:  cpu time      0.0000: real time      0.0000



 total charge

# of ion       s       p       d       tot
------------------------------------------
    1        0.333   6.465   1.844   8.642
    2        0.321   6.452   1.787   8.559
    3        0.313   6.457   1.763   8.533
    4        0.324   6.457   1.817   8.599
    5        0.320   6.462   1.757   8.540
    6        0.321   6.459   1.768   8.547
    7        0.317   6.491   1.682   8.491
    8        0.329   6.459   1.812   8.600
    9        0.325   6.460   1.810   8.595
   10        0.324   6.459   1.803   8.586
   11        0.326   6.455   1.793   8.574
   12        0.319   6.453   1.781   8.553
   13        0.321   6.457   1.777   8.555
   14        0.317   6.465   1.747   8.528
   15        0.321   6.457   1.773   8.550
   16        0.323   6.459   1.798   8.580
   17        0.320   6.453   1.781   8.554
   18        0.318   6.450   1.778   8.546
   19        0.316   6.488   1.677   8.481
   20        0.329   6.459   1.817   8.604
   21        0.329   6.458   1.819   8.605
   22        0.330   6.461   1.813   8.603
   23        0.313   6.458   1.766   8.537
   24        0.320   6.454   1.774   8.548
   25        0.328   6.461   1.831   8.620
   26        0.319   6.451   1.786   8.556
   27        0.325   6.452   1.786   8.562
   28        1.570   3.483   0.000   5.053
   29        1.570   3.475   0.000   5.045
   30        1.569   3.472   0.000   5.041
   31        1.569   3.473   0.000   5.042
   32        1.570   3.472   0.000   5.042
   33        1.568   3.471   0.000   5.039
   34        1.571   3.465   0.000   5.036
   35        1.571   3.482   0.000   5.053
   36        1.569   3.472   0.000   5.041
   37        1.571   3.482   0.000   5.053
   38        1.571   3.472   0.000   5.043
   39        1.569   3.473   0.000   5.042
   40        1.569   3.471   0.000   5.040
   41        1.570   3.482   0.000   5.052
   42        1.569   3.469   0.000   5.038
   43        1.571   3.466   0.000   5.036
   44        1.569   3.475   0.000   5.044
   45        1.569   3.473   0.000   5.042
   46        1.569   3.477   0.000   5.046
   47        1.569   3.471   0.000   5.040
   48        1.570   3.481   0.000   5.051
   49        1.569   3.471   0.000   5.040
   50        1.569   3.475   0.000   5.044
   51        1.569   3.472   0.000   5.041
   52        1.570   3.481   0.000   5.052
   53        1.569   3.475   0.000   5.044
   54        1.568   3.471   0.000   5.039
   55        1.730   4.376   0.000   6.105
   56        1.730   4.378   0.000   6.107
   57        1.731   4.371   0.000   6.103
   58        1.730   4.380   0.000   6.110
   59        1.732   4.376   0.000   6.108
   60        1.729   4.379   0.000   6.108
   61        1.730   4.377   0.000   6.107
   62        1.730   4.379   0.000   6.109
   63        1.729   4.381   0.000   6.110
   64        1.730   4.376   0.000   6.106
   65        1.730   4.378   0.000   6.107
   66        1.729   4.382   0.000   6.111
   67        1.731   4.373   0.000   6.105
   68        1.729   4.378   0.000   6.107
   69        1.729   4.377   0.000   6.106
   70        1.729   4.376   0.000   6.105
   71        1.731   4.373   0.000   6.104
   72        1.729   4.384   0.000   6.113
   73        1.729   4.377   0.000   6.106
   74        1.729   4.377   0.000   6.106
   75        1.729   4.379   0.000   6.108
   76        1.730   4.380   0.000   6.110
   77        1.732   4.374   0.000   6.105
   78        1.730   4.379   0.000   6.109
   79        1.730   4.379   0.000   6.108
   80        1.731   4.370   0.000   6.101
   81        1.730   4.383   0.000   6.112
   82        1.729   4.381   0.000   6.110
   83        1.729   4.379   0.000   6.108
   84        1.729   4.378   0.000   6.106
   85        1.731   4.376   0.000   6.107
   86        1.729   4.378   0.000   6.107
   87        1.730   4.381   0.000   6.110
   88        1.730   4.379   0.000   6.108
   89        1.731   4.375   0.000   6.107
   90        1.730   4.380   0.000   6.109
   91        1.729   4.375   0.000   6.104
   92        1.730   4.381   0.000   6.111
   93        1.729   4.381   0.000   6.110
   94        1.729   4.381   0.000   6.110
   95        1.732   4.373   0.000   6.105
   96        1.732   4.372   0.000   6.104
   97        1.730   4.380   0.000   6.110
   98        1.730   4.379   0.000   6.108
   99        1.730   4.378   0.000   6.108
  100        1.730   4.378   0.000   6.107
  101        1.729   4.378   0.000   6.107
  102        1.729   4.379   0.000   6.108
  103        1.732   4.370   0.000   6.102
  104        1.732   4.370   0.000   6.102
  105        1.730   4.381   0.000   6.110
  106        1.729   4.374   0.000   6.104
  107        1.730   4.378   0.000   6.108
  108        1.730   4.379   0.000   6.109
--------------------------------------------------
tot        144.493 504.593  48.139 697.225



 magnetization (x)

# of ion       s       p       d       tot
------------------------------------------
    1        0.000   0.000   0.000   0.000
    2        0.000   0.000   0.000   0.000
    3        0.000   0.000   0.000   0.000
    4       -0.000   0.000   0.000   0.000
    5       -0.000  -0.000  -0.000  -0.000
    6       -0.000   0.000  -0.000  -0.000
    7       -0.000   0.000   0.000   0.000
    8        0.000  -0.000  -0.000  -0.000
    9        0.000   0.000   0.000   0.000
   10        0.000   0.000   0.000   0.000
   11        0.000   0.000   0.000   0.000
   12        0.000  -0.000   0.000   0.000
   13        0.000   0.000   0.000   0.000
   14        0.000  -0.000   0.000  -0.000
   15       -0.000  -0.000  -0.000  -0.000
   16       -0.000   0.000  -0.000  -0.000
   17        0.000  -0.000  -0.000  -0.000
   18        0.000  -0.000  -0.000  -0.000
   19        0.000  -0.000  -0.000  -0.000
   20        0.000   0.000   0.000   0.000
   21        0.000  -0.000   0.000   0.000
   22       -0.000   0.000   0.000   0.000
   23        0.000  -0.000  -0.000  -0.000
   24        0.000  -0.000  -0.000  -0.000
   25        0.000  -0.000  -0.000  -0.000
   26        0.000  -0.000   0.000   0.000
   27       -0.000  -0.000   0.000  -0.000
   28       -0.000  -0.000   0.000  -0.000
   29       -0.000  -0.000   0.000  -0.000
   30        0.000   0.000   0.000   0.000
   31       -0.000   0.000   0.000  -0.000
   32       -0.000   0.000   0.000   0.000
   33       -0.000  -0.000   0.000  -0.000
   34        0.000   0.000   0.000   0.000
   35        0.000   0.000   0.000   0.000
   36       -0.000  -0.000   0.000  -0.000
   37       -0.000  -0.000   0.000  -0.000
   38        0.000   0.000   0.000   0.000
   39        0.000  -0.000   0.000  -0.000
   40        0.000   0.000   0.000   0.000
   41       -0.000   0.000   0.000   0.000
   42        0.000  -0.000   0.000   0.000
   43        0.000  -0.000   0.000   0.000
   44       -0.000   0.000   0.000  -0.000
   45       -0.000   0.000   0.000  -0.000
   46       -0.000  -0.000   0.000  -0.000
   47        0.000   0.000   0.000   0.000
   48        0.000   0.000   0.000   0.000
   49       -0.000  -0.000   0.000  -0.000
   50        0.000  -0.000   0.000  -0.000
   51        0.000   0.000   0.000   0.000
   52        0.000  -0.000   0.000  -0.000
   53        0.000   0.000   0.000   0.000
   54        0.000   0.000   0.000   0.000
   55       -0.000   0.000   0.000   0.000
   56        0.000  -0.000   0.000  -0.000
   57        0.000   0.000   0.000   0.000
   58       -0.000   0.000   0.000  -0.000
   59       -0.000   0.000   0.000  -0.000
   60        0.000   0.000   0.000   0.000
   61       -0.000  -0.000   0.000  -0.000
   62       -0.000   0.000   0.000  -0.000
   63       -0.000   0.000   0.000  -0.000
   64       -0.000  -0.000   0.000  -0.000
   65        0.000   0.000   0.000   0.000
   66       -0.000   0.000   0.000  -0.000
   67        0.000  -0.000   0.000  -0.000
   68       -0.000  -0.000   0.000  -0.000
   69       -0.000   0.000   0.000  -0.000
   70       -0.000  -0.000   0.000  -0.000
   71        0.000  -0.000   0.000  -0.000
   72        0.000  -0.000   0.000   0.000
   73        0.000   0.000   0.000   0.000
   74        0.000   0.000   0.000   0.000
   75       -0.000   0.000   0.000   0.000
   76       -0.000   0.000   0.000   0.000
   77       -0.000   0.000   0.000  -0.000
   78        0.000  -0.000   0.000  -0.000
   79        0.000   0.000   0.000   0.000
   80       -0.000   0.000   0.000  -0.000
   81       -0.000   0.000   0.000   0.000
   82       -0.000  -0.000   0.000  -0.000
   83       -0.000  -0.000   0.000  -0.000
   84        0.000   0.000   0.000   0.000
   85        0.000  -0.000   0.000  -0.000
   86        0.000  -0.000   0.000   0.000
   87        0.000   0.000   0.000   0.000
   88        0.000   0.000   0.000   0.000
   89        0.000   0.000   0.000   0.000
   90       -0.000   0.000   0.000   0.000
   91       -0.000  -0.000   0.000  -0.000
   92        0.000  -0.000   0.000  -0.000
   93        0.000  -0.000   0.000  -0.000
   94       -0.000  -0.000   0.000  -0.000
   95       -0.000   0.000   0.000  -0.000
   96       -0.000   0.000   0.000  -0.000
   97       -0.000  -0.000   0.000  -0.000
   98        0.000  -0.000   0.000  -0.000
   99       -0.000   0.000   0.000  -0.000
  100       -0.000   0.000   0.000   0.000
  101        0.000   0.000   0.000   0.000
  102        0.000  -0.000   0.000  -0.000
  103       -0.000   0.000   0.000  -0.000
  104        0.000  -0.000   0.000  -0.000
  105       -0.000  -0.000   0.000  -0.000
  106        0.000   0.000   0.000   0.000
  107        0.000  -0.000   0.000   0.000
  108       -0.000  -0.000   0.000  -0.000
--------------------------------------------------
tot         -0.000  -0.000   0.000  -0.000
 

 total amount of memory used by VASP MPI-rank0   297957. kBytes
=======================================================================

   base      :      30000. kBytes
   nonlr-proj:      25316. kBytes
   fftplans  :      18873. kBytes
   grid      :      21088. kBytes
   one-center:        435. kBytes
   wavefun   :     202245. kBytes
 
  
  
 General timing and accounting informations for this job:
 ========================================================
  
                  Total CPU time used (sec):      463.224
                            User time (sec):      442.580
                          System time (sec):       20.644
                         Elapsed time (sec):      468.377
  
                   Maximum memory used (kb):      817128.
                   Average memory used (kb):          N/A
  
                          Minor page faults:       146804
                          Major page faults:            6
                 Voluntary context switches:         9256
