LTO                                     
           1
     7.787670   -0.000287   -0.000979
    -0.000320    7.675819   -0.002005
    -0.000964   -0.001991    7.737529
   Ti   O    F 
   8   8  16
Direct configuration=     1
   0.97796954  0.00071688  0.00072817
   0.99976888  0.98078083  0.50051919
   0.00035520  0.50002936  0.97906893
   0.01759918  0.50209161  0.50318927
   0.49888411  0.00030733  0.00148729
   0.49976100  0.00085384  0.48127318
   0.50025800  0.50041135  0.00808778
   0.49184251  0.50012805  0.48401219
   0.24888819  0.49802574  0.49908109
   0.75656155  0.99986046  0.99838372
   0.99881018  0.75437655  0.49788632
   0.49775475  0.25021400  0.99775386
   0.49783439  0.75013243  0.99800954
   0.99889590  0.49812751  0.75235232
   0.49678696  0.00015878  0.25774002
   0.50278061  0.50042463  0.25512335
   0.23829184  0.99959136  0.99744106
   0.24772826  0.00554954  0.50404779
   0.24384914  0.50074481  0.00329269
   0.75211284  0.00465174  0.50398095
   0.75691837  0.50068322  0.00315277
   0.75268740  0.49740538  0.50044975
   0.00559214  0.25054797  0.00657617
   0.99622673  0.24361402  0.49658935
   0.00533273  0.75033461  0.00690527
   0.50574566  0.24811682  0.51406157
   0.50623809  0.75296455  0.51326323
   0.00396772  0.00543141  0.25187789
   0.00363950  0.00597007  0.74949757
   0.99638040  0.49729654  0.24581162
   0.49560774  0.99968031  0.74182569
   0.50493048  0.50077832  0.74653040
