 vasp.5.4.4.18Apr17-6-g9f103f2a35 (build Jul 16 2019 12:12:28) complex          
  
 executed on             LinuxIFC date 2020.01.06  10:20:08
 running on   96 total cores
 distrk:  each k-point on   96 cores,    1 groups
 distr:  one band on NCORES_PER_BAND=   8 cores,   12 groups


--------------------------------------------------------------------------------------------------------


 INCAR:
 POTCAR:    PAW_PBE Li_sv 10Sep2004               
 POTCAR:    PAW_PBE Ti_pv 07Sep2000               
 POTCAR:    PAW_PBE O 08Apr2002                   
 POTCAR:    PAW_PBE F 08Apr2002                   
 POTCAR:    PAW_PBE Li_sv 10Sep2004               
   VRHFIN =Li: 1s2s2p                                                           
   LEXCH  = PE                                                                  
   EATOM  =   202.7858 eV,   14.9043 Ry                                         
                                                                                
   TITEL  = PAW_PBE Li_sv 10Sep2004                                             
   LULTRA =        F    use ultrasoft PP ?                                      
   IUNSCR =        0    unscreen: 0-lin 1-nonlin 2-no                           
   RPACOR =    0.000    partial core radius                                     
   POMASS =    7.010; ZVAL   =    3.000    mass and valenz                      
   RCORE  =    1.700    outmost cutoff radius                                   
   RWIGS  =    2.050; RWIGS  =    1.085    wigner-seitz radius (au A)           
   ENMAX  =  499.034; ENMIN  =  374.276 eV                                      
   ICORE  =        2    local potential                                         
   LCOR   =        T    correct aug charges                                     
   LPAW   =        T    paw PP                                                  
   EAUG   =  628.945                                                            
   RMAX   =    1.732    core radius for proj-oper                               
   RAUG   =    1.300    factor for augmentation sphere                          
   RDEP   =    1.728    radius for radial grids                                 
   RDEPT  =    1.329    core radius for aug-charge                              
                                                                                
   Atomic configuration                                                         
    4 entries                                                                   
     n  l   j            E        occ.                                          
     1  0  0.50       -51.8549   2.0000                                         
     2  0  0.50        -2.8742   1.0000                                         
     2  1  0.50        -1.3606   0.0000                                         
     3  2  1.50        -1.3606   0.0000                                         
   Description                                                                  
     l       E           TYP  RCUT    TYP  RCUT                                 
     0    -51.8548813     23  1.400                                             
     0     -2.8742052     23  1.700                                             
     1     -1.3605826     23  1.400                                             
     2     -1.3605826     23  1.400                                             
  local pseudopotential read in
  atomic valenz-charges read in
  non local Contribution for L=           0  read in
    real space projection operators read in
  non local Contribution for L=           0  read in
    real space projection operators read in
  non local Contribution for L=           1  read in
    real space projection operators read in
    PAW grid and wavefunctions read in
 
   number of l-projection  operators is LMAX  =           3
   number of lm-projection operators is LMMAX =           5
 
 POTCAR:    PAW_PBE Ti_pv 07Sep2000               
   VRHFIN =Ti: d3 s1                                                            
   LEXCH  = PE                                                                  
   EATOM  =  1042.5995 eV,   76.6289 Ry                                         
                                                                                
   TITEL  = PAW_PBE Ti_pv 07Sep2000                                             
   LULTRA =        F    use ultrasoft PP ?                                      
   IUNSCR =        1    unscreen: 0-lin 1-nonlin 2-no                           
   RPACOR =    2.200    partial core radius                                     
   POMASS =   47.880; ZVAL   =   10.000    mass and valenz                      
   RCORE  =    2.500    outmost cutoff radius                                   
   RWIGS  =    2.500; RWIGS  =    1.323    wigner-seitz radius (au A)           
   ENMAX  =  222.335; ENMIN  =  166.751 eV                                      
   RCLOC  =    1.701    cutoff for local pot                                    
   LCOR   =        T    correct aug charges                                     
   LPAW   =        T    paw PP                                                  
   EAUG   =  482.848                                                            
   DEXC   =    0.000                                                            
   RMAX   =    2.564    core radius for proj-oper                               
   RAUG   =    1.300    factor for augmentation sphere                          
   RDEP   =    2.538    radius for radial grids                                 
   RDEPT  =    1.952    core radius for aug-charge                              
                                                                                
   Atomic configuration                                                         
    8 entries                                                                   
     n  l   j            E        occ.                                          
     1  0  0.50     -4865.3608   2.0000                                         
     2  0  0.50      -533.1368   2.0000                                         
     2  1  1.50      -440.5031   6.0000                                         
     3  0  0.50       -59.3186   2.0000                                         
     3  1  1.50       -35.7012   6.0000                                         
     3  2  2.50        -1.9157   3.0000                                         
     4  0  0.50        -3.7291   1.0000                                         
     4  3  2.50        -1.3606   0.0000                                         
   Description                                                                  
     l       E           TYP  RCUT    TYP  RCUT                                 
     1    -35.7012140     23  2.300                                             
     1     -1.3605826     23  2.300                                             
     2     -1.9156996     23  2.500                                             
     2     -0.4063033     23  2.500                                             
     0     -3.7290856     23  2.500                                             
     0     20.4087390     23  2.500                                             
  local pseudopotential read in
  partial core-charges read in
  partial kinetic energy density read in
  atomic valenz-charges read in
  non local Contribution for L=           1  read in
    real space projection operators read in
  non local Contribution for L=           1  read in
    real space projection operators read in
  non local Contribution for L=           2  read in
    real space projection operators read in
  non local Contribution for L=           2  read in
    real space projection operators read in
  non local Contribution for L=           0  read in
    real space projection operators read in
  non local Contribution for L=           0  read in
    real space projection operators read in
    PAW grid and wavefunctions read in
 
   number of l-projection  operators is LMAX  =           6
   number of lm-projection operators is LMMAX =          18
 
 POTCAR:    PAW_PBE O 08Apr2002                   
   VRHFIN =O: s2p4                                                              
   LEXCH  = PE                                                                  
   EATOM  =   432.3788 eV,   31.7789 Ry                                         
                                                                                
   TITEL  = PAW_PBE O 08Apr2002                                                 
   LULTRA =        F    use ultrasoft PP ?                                      
   IUNSCR =        1    unscreen: 0-lin 1-nonlin 2-no                           
   RPACOR =    1.200    partial core radius                                     
   POMASS =   16.000; ZVAL   =    6.000    mass and valenz                      
   RCORE  =    1.520    outmost cutoff radius                                   
   RWIGS  =    1.550; RWIGS  =    0.820    wigner-seitz radius (au A)           
   ENMAX  =  400.000; ENMIN  =  300.000 eV                                      
   ICORE  =        2    local potential                                         
   LCOR   =        T    correct aug charges                                     
   LPAW   =        T    paw PP                                                  
   EAUG   =  605.392                                                            
   DEXC   =    0.000                                                            
   RMAX   =    1.553    core radius for proj-oper                               
   RAUG   =    1.300    factor for augmentation sphere                          
   RDEP   =    1.550    radius for radial grids                                 
   RDEPT  =    1.329    core radius for aug-charge                              
                                                                                
   Atomic configuration                                                         
    4 entries                                                                   
     n  l   j            E        occ.                                          
     1  0  0.50      -514.6923   2.0000                                         
     2  0  0.50       -23.9615   2.0000                                         
     2  1  0.50        -9.0305   4.0000                                         
     3  2  1.50        -9.5241   0.0000                                         
   Description                                                                  
     l       E           TYP  RCUT    TYP  RCUT                                 
     0    -23.9615318     23  1.200                                             
     0     -9.5240782     23  1.200                                             
     1     -9.0304911     23  1.520                                             
     1      8.1634956     23  1.520                                             
     2     -9.5240782      7  1.500                                             
  local pseudopotential read in
  partial core-charges read in
  partial kinetic energy density read in
  kinetic energy density of atom read in
  atomic valenz-charges read in
  non local Contribution for L=           0  read in
    real space projection operators read in
  non local Contribution for L=           0  read in
    real space projection operators read in
  non local Contribution for L=           1  read in
    real space projection operators read in
  non local Contribution for L=           1  read in
    real space projection operators read in
    PAW grid and wavefunctions read in
 
   number of l-projection  operators is LMAX  =           4
   number of lm-projection operators is LMMAX =           8
 
 POTCAR:    PAW_PBE F 08Apr2002                   
   VRHFIN =F: s2p5                                                              
   LEXCH  = PE                                                                  
   EATOM  =   659.6475 eV,   48.4827 Ry                                         
                                                                                
   TITEL  = PAW_PBE F 08Apr2002                                                 
   LULTRA =        F    use ultrasoft PP ?                                      
   IUNSCR =        1    unscreen: 0-lin 1-nonlin 2-no                           
   RPACOR =    1.200    partial core radius                                     
   POMASS =   18.998; ZVAL   =    7.000    mass and valenz                      
   RCORE  =    1.520    outmost cutoff radius                                   
   RWIGS  =    1.500; RWIGS  =    0.794    wigner-seitz radius (au A)           
   ENMAX  =  400.000; ENMIN  =  300.000 eV                                      
   ICORE  =        2    local potential                                         
   LCOR   =        T    correct aug charges                                     
   LPAW   =        T    paw PP                                                  
   EAUG   =  613.614                                                            
   RMAX   =    1.555    core radius for proj-oper                               
   RAUG   =    1.300    factor for augmentation sphere                          
   RDEP   =    1.539    radius for radial grids                                 
   RDEPT  =    1.299    core radius for aug-charge                              
                                                                                
   Atomic configuration                                                         
    4 entries                                                                   
     n  l   j            E        occ.                                          
     1  0  0.50      -663.3661   2.0000                                         
     2  0  0.50       -29.8995   2.0000                                         
     2  1  0.50       -11.1114   5.0000                                         
     3  2  1.50       -10.8847   0.0000                                         
   Description                                                                  
     l       E           TYP  RCUT    TYP  RCUT                                 
     0    -29.8995018     23  1.200                                             
     0     -9.5240782     23  1.200                                             
     1    -11.1113914     23  1.520                                             
     1      1.3605826     23  1.520                                             
     2    -10.8846608      7  1.500                                             
  local pseudopotential read in
  partial core-charges read in
  partial kinetic energy density read in
  atomic valenz-charges read in
  non local Contribution for L=           0  read in
    real space projection operators read in
  non local Contribution for L=           0  read in
    real space projection operators read in
  non local Contribution for L=           1  read in
    real space projection operators read in
  non local Contribution for L=           1  read in
    real space projection operators read in
    PAW grid and wavefunctions read in
 
   number of l-projection  operators is LMAX  =           4
   number of lm-projection operators is LMMAX =           8
 
 Optimization of the real space projectors (new method)

 maximal supplied QI-value         = 22.11
 optimisation between [QCUT,QGAM] = [ 11.28, 22.77] = [ 35.61,145.23] Ry 
 Optimized for a Real-space Cutoff    1.31 Angstroem

   l    n(q)    QCUT    max X(q) W(low)/X(q) W(high)/X(q)  e(spline) 
   0      9    11.276    10.506    0.19E-04    0.17E-04    0.32E-07
   0      9    11.276     8.367    0.38E-04    0.40E-04    0.65E-07
   1      8    11.276     8.983    0.55E-04    0.98E-04    0.20E-06
 Optimization of the real space projectors (new method)

 maximal supplied QI-value         = 15.12
 optimisation between [QCUT,QGAM] = [ 11.34, 22.83] = [ 36.00,145.93] Ry 
 Optimized for a Real-space Cutoff    1.56 Angstroem

   l    n(q)    QCUT    max X(q) W(low)/X(q) W(high)/X(q)  e(spline) 
   1     10    11.338     4.216    0.27E-04    0.12E-04    0.66E-07
   1     10    11.338     5.422    0.81E-04    0.24E-04    0.19E-06
   2     10    11.338    72.084    0.64E-04    0.21E-03    0.51E-06
   2     10    11.338    65.965    0.63E-04    0.21E-03    0.50E-06
   0     11    11.338    41.531    0.33E-04    0.54E-04    0.13E-06
   0     11    11.338    16.290    0.26E-04    0.41E-04    0.11E-06
 Optimization of the real space projectors (new method)

 maximal supplied QI-value         = 24.76
 optimisation between [QCUT,QGAM] = [ 11.39, 22.77] = [ 36.31,145.25] Ry 
 Optimized for a Real-space Cutoff    1.20 Angstroem

   l    n(q)    QCUT    max X(q) W(low)/X(q) W(high)/X(q)  e(spline) 
   0      8    11.387    20.381    0.89E-04    0.31E-03    0.27E-06
   0      8    11.387    15.268    0.93E-04    0.32E-03    0.29E-06
   1      8    11.387     5.964    0.53E-04    0.28E-03    0.29E-06
   1      8    11.387     5.382    0.37E-04    0.22E-03    0.26E-06
 Optimization of the real space projectors (new method)

 maximal supplied QI-value         = 24.76
 optimisation between [QCUT,QGAM] = [ 11.39, 22.77] = [ 36.31,145.25] Ry 
 Optimized for a Real-space Cutoff    1.20 Angstroem

   l    n(q)    QCUT    max X(q) W(low)/X(q) W(high)/X(q)  e(spline) 
   0      8    11.387    14.049    0.69E-04    0.23E-03    0.18E-06
   0      8    11.387     8.945    0.88E-04    0.30E-03    0.26E-06
   1      8    11.387     7.086    0.62E-04    0.27E-03    0.27E-06
   1      8    11.387     6.747    0.46E-04    0.23E-03    0.25E-06

 ----------------------------------------------------------------------------- 
|                                                                             |
|  ADVICE TO THIS USER RUNNING 'VASP/VAMP'   (HEAR YOUR MASTER'S VOICE ...):  |
|                                                                             |
|      You enforced a specific xc-type in the INCAR file,                     |
|      a different type was found on the POTCAR file                          |
|          I HOPE YOU KNOW, WHAT YOU ARE  DOING                               |
|                                                                             |
 ----------------------------------------------------------------------------- 

  PAW_PBE Li_sv 10Sep2004               :
 energy of atom  1       EATOM= -202.7858
 kinetic energy error for atom=    0.0143 (will be added to EATOM!!)
  PAW_PBE Ti_pv 07Sep2000               :
 energy of atom  2       EATOM=-1042.5995
 kinetic energy error for atom=    0.0024 (will be added to EATOM!!)
  PAW_PBE O 08Apr2002                   :
 energy of atom  3       EATOM= -432.3788
 kinetic energy error for atom=    0.0224 (will be added to EATOM!!)
  PAW_PBE F 08Apr2002                   :
 energy of atom  4       EATOM= -659.6475
 kinetic energy error for atom=    0.0354 (will be added to EATOM!!)
 
 
 POSCAR: config 16                               
  positions in direct lattice
  velocities in cartesian coordinates
 exchange correlation table for  LEXCH =       14
   RHO(1)=    0.500       N(1)  =     2000
   RHO(2)=  100.500       N(2)  =     4000

 VTST: version 3.2, (02/03/18)

 CHAIN: initializing optimizer
 
 OPT: Using VASP QUASI-newton optimizer
 CHAIN: Read ICHAIN            0
 
 POSCAR: config 16                               
  positions in direct lattice
  velocities in cartesian coordinates
 


--------------------------------------------------------------------------------------------------------


 ion  position               nearest neighbor table
   1  0.168  0.875  0.884- 157 1.92  86 1.94 246 2.18
   2  0.995  0.995  0.994- 118 1.87 103 1.88  68 1.89 212 2.03 130 2.04 171 2.04
   3  1.000  0.992  0.493- 119 1.80  67 1.83 172 1.95 193 1.95 131 2.01 213 2.08
   4  0.006  0.496  0.997-  89 1.83 117 1.86 138 1.93 132 1.98 214 2.02 194 2.03
   5  0.994  0.503  0.507-  66 1.82 104 1.84 215 1.93 223 2.00 173 2.01 137 2.03
   6  0.495  0.993  1.000- 121 1.83 101 1.85 140 1.95 133 1.97 216 2.01 174 2.02
   7  0.501  0.008  0.500- 112 1.77 191 1.91 134 1.92 139 1.92 175 1.93 225 2.01
   8  0.505  0.495  0.996-  70 1.87 120 1.89  90 1.89 192 2.03 135 2.04 217 2.05
   9  0.491  0.499  0.495- 102 1.80  69 1.86 224 1.98 218 1.98 136 2.01 176 2.07
  10  0.007  0.003  0.256-  91 1.84  67 1.85 219 1.94 227 1.96 130 2.00 197 2.05
  11  0.001  0.008  0.756-  68 1.80 113 1.83 177 1.96 198 1.97 228 2.04 131 2.05
  12  0.994  0.494  0.251- 107 1.82 122 1.86 137 1.93 132 1.96 220 2.00 178 2.02
  13  0.993  0.499  0.742- 108 1.82  66 1.83 226 1.93 221 1.97 138 2.02 179 2.03
  14  0.506  0.008  0.250- 114 1.82  92 1.84 133 1.93 139 1.98 195 2.00 231 2.04
  15  0.492  0.005  0.752- 105 1.82 115 1.83 140 1.93 232 2.00 134 2.00 180 2.03
  16  0.493  0.497  0.257-  69 1.82 106 1.84 229 1.96 222 2.00 135 2.02 181 2.04
  17  0.501  0.504  0.758-  70 1.81 116 1.86 182 1.95 196 1.96 230 2.05 136 2.07
  18  0.996  0.258  0.001- 117 1.81 110 1.88 141 1.96 146 1.96 183 2.00 212 2.03
  19  0.999  0.248  0.491-  74 1.77 213 1.91 184 1.93 202 1.93 223 1.94 142 2.01
  20  0.998  0.757  0.008- 118 1.83  71 1.84 203 1.95 185 1.97 214 2.04 148 2.05
  21  0.997  0.756  0.506-  72 1.83 119 1.84 204 1.94 186 1.96 215 2.02 147 2.02
  22  0.495  0.258  0.001- 120 1.80 109 1.85 150 1.95 143 1.97 187 2.03 216 2.07
  23  0.508  0.246  0.499-  93 1.80 112 1.90 144 1.92 149 1.94 224 1.96 199 2.00
  24  0.508  0.756  1.000-  94 1.83 121 1.85 152 1.93 145 1.98 217 2.01 200 2.02
  25  0.506  0.753  0.510-  73 1.78  95 1.84 218 1.96 225 1.96 201 2.00 151 2.08
  26  1.000  0.258  0.255- 122 1.79  74 1.88 209 1.95 188 1.95 141 1.99 219 2.03
  27  0.007  0.243  0.747- 113 1.81  96 1.82 142 1.96 146 1.97 226 2.03 210 2.05
  28  0.006  0.749  0.244-  71 1.82  97 1.83 220 1.94 227 1.98 147 2.03 211 2.06
  29  0.992  0.751  0.744- 111 1.83  72 1.85 228 1.94 189 1.96 221 1.97 148 2.04
  30  0.508  0.242  0.251-  98 1.82 114 1.83 143 1.92 149 1.96 229 2.01 205 2.02
  31  0.507  0.243  0.750-  99 1.84 115 1.85 150 1.93 144 1.97 230 2.01 206 2.02
  32  0.507  0.751  0.252- 100 1.79 151 1.92 231 1.93 222 1.94 145 1.94 207 2.00
  33  0.501  0.742  0.744- 116 1.81  73 1.85 208 1.92 190 1.94 152 2.02 232 2.07
  34  0.258  0.001  0.009-  75 1.81 101 1.84 233 1.94 246 1.96 171 2.02 157 2.13
  35  0.250  0.994  0.506- 128 1.81  76 1.86 172 1.94 191 1.98 156 2.01 234 2.02
  36  0.244  0.508  0.996- 123 1.81  89 1.85 159 1.93 153 1.97 192 2.02 245 2.05
  37  0.254  0.495  0.508-  77 1.82 102 1.88 127 1.89 173 2.03 235 2.04 158 2.06
  38  0.757  1.000  0.994- 103 1.80  81 1.86 236 1.95 249 1.95 154 2.04 174 2.05
  39  0.750  0.007  0.494-  80 1.83 124 1.83 193 1.93 175 1.99 155 2.00 250 2.02
  40  0.742  0.501  0.005-  90 1.80  78 1.87 237 1.96 247 1.96 161 2.02 194 2.05
  41  0.755  0.498  0.505-  79 1.84 104 1.85 248 1.95 238 1.98 176 2.01 160 2.02
  42  0.245  0.003  0.245-  91 1.84  75 1.85 239 1.93 252 1.96 156 2.01 195 2.06
  43  0.258  0.000  0.742-  76 1.81 105 1.83 253 1.93 240 1.95 177 2.04 157 2.11
  44  0.255  0.492  0.251- 106 1.83 129 1.83 158 1.92 153 1.97 241 2.03 178 2.04
  45  0.247  0.507  0.743- 125 1.78  77 1.82 179 1.96 196 1.99 251 2.05 159 2.06
  46  0.744  0.000  0.255-  92 1.85  80 1.86 256 1.94 242 1.95 154 2.00 197 2.00
  47  0.747  0.007  0.756-  81 1.82 126 1.83 180 1.94 198 1.96 257 2.03 155 2.06
  48  0.756  0.499  0.243-  78 1.81 107 1.86 243 1.95 254 1.96 181 2.02 160 2.04
  49  0.757  0.498  0.743- 108 1.83  79 1.84 255 1.94 244 1.97 182 2.03 161 2.03
  50  0.257  0.252  0.006- 109 1.83  82 1.86 245 1.92 233 1.99 168 2.01 183 2.05
  51  0.253  0.256  0.506- 127 1.79  83 1.86 199 1.96 184 2.01 167 2.04 234 2.05
  52  0.252  0.742  0.993-  86 1.79 123 1.83 200 1.95 185 1.99 162 2.05 246 2.11
  53  0.251  0.755  0.492-  85 1.83 128 1.88 201 1.95 186 1.97 163 1.98 235 1.99
  54  0.757  0.251  0.007- 110 1.80  84 1.86 247 1.94 236 1.94 170 2.03 187 2.03
  55  0.743  0.243  0.498- 124 1.82  93 1.84 169 1.93 164 1.96 248 2.01 202 2.03
  56  0.741  0.749  0.995-  94 1.82  88 1.83 237 1.94 249 1.95 203 2.03 165 2.04
  57  0.741  0.753  0.495-  95 1.81  87 1.86 250 1.95 238 1.96 166 2.01 204 2.03
  58  0.251  0.257  0.243- 129 1.81  82 1.83 205 1.96 188 1.99 167 2.03 239 2.04
  59  0.244  0.251  0.743-  83 1.83  96 1.85 251 1.91 240 2.00 168 2.04 206 2.04
  60  0.244  0.749  0.255-  85 1.83  97 1.84 241 1.93 252 1.98 162 2.01 207 2.06
  61  0.248  0.742  0.754- 125 1.88  86 2.02 189 2.02 208 2.03 253 2.06 163 2.07
  62  0.742  0.251  0.242-  84 1.79  98 1.83 254 1.93 242 1.95 209 2.04 169 2.06
  63  0.744  0.242  0.751- 126 1.82  99 1.84 170 1.94 164 1.99 210 2.01 255 2.04
  64  0.745  0.750  0.257-  87 1.81 100 1.90 243 1.93 256 1.95 211 1.98 165 2.02
  65  0.757  0.751  0.758- 111 1.81  88 1.84 257 1.94 244 1.97 190 2.02 166 2.05
  66  0.007  0.503  0.624-   5 1.82  13 1.83
  67  0.998  0.007  0.376-   3 1.83  10 1.85
  68  0.005  0.001  0.873-  11 1.80   2 1.89
  69  0.500  0.493  0.375-  16 1.82   9 1.86
  70  0.495  0.497  0.875-  17 1.81   8 1.87
  71  0.992  0.748  0.127-  28 1.82  20 1.84
  72  0.997  0.746  0.624-  21 1.83  29 1.85
  73  0.495  0.753  0.625-  25 1.78  33 1.85
  74  0.995  0.247  0.376-  19 1.77  26 1.88
  75  0.259  0.009  0.126-  34 1.81  42 1.85
  76  0.258  0.009  0.625-  43 1.81  35 1.86
  77  0.239  0.500  0.625-  45 1.82  37 1.82
  78  0.751  0.492  0.126-  48 1.81  40 1.87
  79  0.746  0.494  0.624-  41 1.84  49 1.84
  80  0.748  0.999  0.376-  39 1.83  46 1.86
  81  0.743  0.999  0.874-  47 1.82  38 1.86
  82  0.246  0.243  0.125-  58 1.83  50 1.86
  83  0.252  0.243  0.625-  59 1.83  51 1.86
  84  0.742  0.258  0.126-  62 1.79  54 1.86
  85  0.250  0.751  0.373-  53 1.83  60 1.83
  86  0.237  0.770  0.881-  52 1.79   1 1.94  61 2.02
  87  0.747  0.752  0.375-  64 1.81  57 1.86
  88  0.743  0.752  0.876-  56 1.83  65 1.84
  89  0.124  0.507  0.995-   4 1.83  36 1.85
  90  0.626  0.511  0.998-  40 1.80   8 1.89
  91  0.126  0.004  0.250-  42 1.84  10 1.84
  92  0.625  0.002  0.247-  14 1.84  46 1.85
  93  0.624  0.257  0.494-  23 1.80  55 1.84
  94  0.625  0.738  0.010-  56 1.82  24 1.83
  95  0.624  0.763  0.502-  57 1.81  25 1.84
  96  0.124  0.252  0.749-  27 1.82  59 1.85
  97  0.125  0.751  0.247-  28 1.83  60 1.84
  98  0.626  0.244  0.262-  30 1.82  62 1.83
  99  0.625  0.253  0.748-  31 1.84  63 1.84
 100  0.623  0.753  0.246-  32 1.79  64 1.90
 101  0.375  0.995  0.989-  34 1.84   6 1.85
 102  0.375  0.505  0.504-   9 1.80  37 1.88
 103  0.873  0.996  0.998-  38 1.80   2 1.88
 104  0.875  0.503  0.499-   5 1.84  41 1.85
 105  0.375  0.997  0.762-  15 1.82  43 1.83
 106  0.374  0.495  0.248-  44 1.83  16 1.84
 107  0.876  0.497  0.252-  12 1.82  48 1.86
 108  0.875  0.509  0.747-  13 1.82  49 1.83
 109  0.376  0.251  0.004-  50 1.83  22 1.85
 110  0.874  0.252  0.005-  54 1.80  18 1.88
 111  0.874  0.743  0.754-  65 1.81  29 1.83
 112  0.510  0.123  0.495-   7 1.77  23 1.90
 113  0.997  0.126  0.744-  27 1.81  11 1.83
 114  0.494  0.125  0.262-  14 1.82  30 1.83
 115  0.502  0.123  0.748-  15 1.83  31 1.85
 116  0.503  0.625  0.750-  33 1.81  17 1.86
 117  0.003  0.375  0.004-  18 1.81   4 1.86
 118  0.011  0.875  0.999-  20 1.83   2 1.87
 119  0.995  0.875  0.498-   3 1.80  21 1.84
 120  0.506  0.374  0.007-  22 1.80   8 1.89
 121  0.508  0.875  0.005-   6 1.83  24 1.85
 122  0.007  0.374  0.247-  26 1.79  12 1.86
 123  0.260  0.624  0.990-  36 1.81  52 1.83
 124  0.742  0.125  0.504-  55 1.82  39 1.83
 125  0.246  0.621  0.759-  45 1.78  61 1.88
 126  0.751  0.125  0.744-  63 1.82  47 1.83
 127  0.253  0.372  0.498-  51 1.79  37 1.89
 128  0.253  0.876  0.502-  35 1.81  53 1.88
 129  0.241  0.374  0.250-  58 1.81  44 1.83
 130  0.998  0.001  0.126-  10 2.00   2 2.04
 131  0.001  0.998  0.624-   3 2.01  11 2.05
 132  1.000  0.508  0.125-  12 1.96   4 1.98
 133  0.491  0.007  0.126-  14 1.93   6 1.97
 134  0.492  0.996  0.623-   7 1.92  15 2.00
 135  0.502  0.507  0.127-  16 2.02   8 2.04
 136  0.508  0.500  0.624-   9 2.01  17 2.07
 137  0.004  0.497  0.376-  12 1.93   5 2.03
 138  0.995  0.498  0.873-   4 1.93  13 2.02
 139  0.507  0.989  0.377-   7 1.92  14 1.98
 140  0.518  0.999  0.875-  15 1.93   6 1.95
 141  0.007  0.245  0.127-  18 1.96  26 1.99
 142  0.999  0.258  0.621-  27 1.96  19 2.01
 143  0.509  0.238  0.127-  30 1.92  22 1.97
 144  0.496  0.247  0.623-  23 1.92  31 1.97
 145  0.491  0.746  0.127-  32 1.94  24 1.98
 146  0.996  0.251  0.874-  18 1.96  27 1.97
 147  0.997  0.750  0.375-  21 2.02  28 2.03
 148  0.005  0.752  0.875-  29 2.04  20 2.05
 149  0.491  0.262  0.376-  23 1.94  30 1.96
 150  0.500  0.251  0.875-  31 1.93  22 1.95
 151  0.498  0.755  0.375-  32 1.92  25 2.08
 152  0.508  0.753  0.875-  24 1.93  33 2.02
 153  0.245  0.502  0.124-  44 1.97  36 1.97
 154  0.752  0.003  0.126-  46 2.00  38 2.04
 155  0.749  0.995  0.623-  39 2.00  47 2.06
 156  0.250  0.998  0.375-  35 2.01  42 2.01
 157  0.234  0.980  0.875-   1 1.92  43 2.11  34 2.13
 158  0.247  0.505  0.375-  44 1.92  37 2.06
 159  0.259  0.486  0.874-  36 1.93  45 2.06
 160  0.746  0.506  0.375-  41 2.02  48 2.04
 161  0.752  0.505  0.874-  40 2.02  49 2.03
 162  0.257  0.751  0.125-  60 2.01  52 2.05
 163  0.253  0.746  0.620-  53 1.98  61 2.07
 164  0.751  0.261  0.623-  55 1.96  63 1.99
 165  0.757  0.749  0.126-  64 2.02  56 2.04
 166  0.752  0.749  0.625-  57 2.01  65 2.05
 167  0.253  0.247  0.374-  58 2.03  51 2.04
 168  0.252  0.256  0.875-  50 2.01  59 2.04
 169  0.762  0.244  0.374-  55 1.93  62 2.06
 170  0.752  0.245  0.876-  63 1.94  54 2.03
 171  0.127  0.007  0.003-  34 2.02   2 2.04
 172  0.125  0.004  0.502-  35 1.94   3 1.95
 173  0.123  0.498  0.492-   5 2.01  37 2.03
 174  0.625  0.006  0.010-   6 2.02  38 2.05
 175  0.624  0.984  0.506-   7 1.93  39 1.99
 176  0.625  0.493  0.498-  41 2.01   9 2.07
 177  0.126  0.997  0.745-  11 1.96  43 2.04
 178  0.124  0.508  0.249-  12 2.02  44 2.04
 179  0.122  0.489  0.762-  45 1.96  13 2.03
 180  0.623  0.995  0.738-  47 1.94  15 2.03
 181  0.625  0.500  0.250-  48 2.02  16 2.04
 182  0.626  0.492  0.755-  17 1.95  49 2.03
 183  0.125  0.246  0.995-  18 2.00  50 2.05
 184  0.123  0.247  0.498-  19 1.93  51 2.01
 185  0.124  0.738  0.011-  20 1.97  52 1.99
 186  0.124  0.751  0.498-  21 1.96  53 1.97
 187  0.626  0.245  0.994-  22 2.03  54 2.03
 188  0.125  0.236  0.256-  26 1.95  58 1.99
 189  0.118  0.762  0.750-  29 1.96  61 2.02
 190  0.627  0.755  0.744-  33 1.94  65 2.02
 191  0.377  0.008  0.491-   7 1.91  35 1.98
 192  0.374  0.492  0.008-  36 2.02   8 2.03
 193  0.875  0.008  0.506-  39 1.93   3 1.95
 194  0.875  0.495  0.999-   4 2.03  40 2.05
 195  0.377  0.995  0.259-  14 2.00  42 2.06
 196  0.375  0.497  0.741-  17 1.96  45 1.99
 197  0.874  0.998  0.249-  46 2.00  10 2.05
 198  0.874  0.996  0.746-  47 1.96  11 1.97
 199  0.379  0.241  0.498-  51 1.96  23 2.00
 200  0.377  0.761  0.995-  52 1.95  24 2.02
 201  0.377  0.743  0.495-  53 1.95  25 2.00
 202  0.874  0.248  0.505-  19 1.93  55 2.03
 203  0.872  0.761  0.995-  20 1.95  56 2.03
 204  0.872  0.742  0.499-  21 1.94  57 2.03
 205  0.378  0.258  0.246-  58 1.96  30 2.02
 206  0.376  0.247  0.752-  31 2.02  59 2.04
 207  0.377  0.750  0.251-  32 2.00  60 2.06
 208  0.379  0.756  0.760-  33 1.92  61 2.03
 209  0.874  0.256  0.244-  26 1.95  62 2.04
 210  0.874  0.253  0.747-  63 2.01  27 2.05
 211  0.873  0.749  0.254-  64 1.98  28 2.06
 212  1.000  0.126  0.001-   2 2.03  18 2.03
 213  0.999  0.126  0.509-  19 1.91   3 2.08
 214  0.990  0.626  0.995-   4 2.02  20 2.04
 215  0.003  0.627  0.492-   5 1.93  21 2.02
 216  0.501  0.124  0.997-   6 2.01  22 2.07
 217  0.487  0.627  0.999-  24 2.01   8 2.05
 218  0.509  0.627  0.497-  25 1.96   9 1.98
 219  0.991  0.127  0.246-  10 1.94  26 2.03
 220  0.998  0.624  0.256-  28 1.94  12 2.00
 221  0.012  0.625  0.756-  13 1.97  29 1.97
 222  0.500  0.626  0.255-  32 1.94  16 2.00
 223  1.000  0.374  0.498-  19 1.94   5 2.00
 224  0.493  0.372  0.507-  23 1.96   9 1.98
 225  0.488  0.878  0.499-  25 1.96   7 2.01
 226  0.993  0.374  0.750-  13 1.93  27 2.03
 227  0.996  0.876  0.253-  10 1.96  28 1.98
 228  0.996  0.876  0.748-  29 1.94  11 2.04
 229  0.505  0.372  0.240-  16 1.96  30 2.01
 230  0.496  0.372  0.745-  31 2.01  17 2.05
 231  0.497  0.876  0.245-  32 1.93  14 2.04
 232  0.503  0.876  0.752-  15 2.00  33 2.07
 233  0.250  0.125  0.985-  34 1.94  50 1.99
 234  0.249  0.124  0.492-  35 2.02  51 2.05
 235  0.245  0.626  0.498-  53 1.99  37 2.04
 236  0.749  0.126  0.003-  54 1.94  38 1.95
 237  0.765  0.626  0.003-  56 1.94  40 1.96
 238  0.742  0.626  0.502-  57 1.96  41 1.98
 239  0.261  0.126  0.258-  42 1.93  58 2.04
 240  0.248  0.124  0.766-  43 1.95  59 2.00
 241  0.252  0.624  0.246-  60 1.93  44 2.03
 242  0.759  0.126  0.248-  62 1.95  46 1.95
 243  0.748  0.625  0.247-  64 1.93  48 1.95
 244  0.738  0.625  0.748-  65 1.97  49 1.97
 245  0.245  0.376  0.005-  50 1.92  36 2.05
 246  0.234  0.877  0.009-  34 1.96  52 2.11   1 2.18
 247  0.744  0.375  0.988-  54 1.94  40 1.96
 248  0.756  0.372  0.490-  41 1.95  55 2.01
 249  0.740  0.875  0.008-  56 1.95  38 1.95
 250  0.762  0.877  0.503-  57 1.95  39 2.02
 251  0.255  0.374  0.749-  59 1.91  45 2.05
 252  0.253  0.876  0.246-  42 1.96  60 1.98
 253  0.244  0.876  0.742-  43 1.93  61 2.06
 254  0.747  0.374  0.264-  62 1.93  48 1.96
 255  0.755  0.374  0.758-  49 1.94  63 2.04
 256  0.753  0.875  0.244-  46 1.94  64 1.95
 257  0.751  0.876  0.745-  65 1.94  47 2.03
 

IMPORTANT INFORMATION: All symmetrisations will be switched off!
NOSYMM: (Re-)initialisation of all symmetry stuff for point group C_1.

 
 
 KPOINTS: Title                                   

Automatic generation of k-mesh.
Space group operators:
 irot       det(A)        alpha          n_x          n_y          n_z        tau_x        tau_y        tau_z
    1     1.000000     0.000001     1.000000     0.000000     0.000000     0.000000     0.000000     0.000000
 
 Subroutine IBZKPT returns following result:
 ===========================================
 
 Found      4 irreducible k-points:
 
 Following reciprocal coordinates:
            Coordinates               Weight
  0.250000  0.250000  0.250000      2.000000
 -0.250000  0.250000  0.250000      2.000000
  0.250000 -0.250000  0.250000      2.000000
 -0.250000 -0.250000  0.250000      2.000000
 
 Following cartesian coordinates:
            Coordinates               Weight
  0.016206  0.016206  0.016206      2.000000
 -0.016206  0.016206  0.016206      2.000000
  0.016206 -0.016206  0.016206      2.000000
 -0.016206 -0.016206  0.016206      2.000000
 


--------------------------------------------------------------------------------------------------------




 Dimension of arrays:
   k-points           NKPTS =      4   k-points in BZ     NKDIM =      4   number of bands    NBANDS=   1164
   number of dos      NEDOS =   3001   number of ions     NIONS =    257
   non local maximal  LDIM  =      6   non local SUM 2l+1 LMDIM =     18
   total plane-waves  NPLWV = ******
   max r-space proj   IRMAX =   7595   max aug-charges    IRDMAX= 146383
   dimension x,y,z NGX =   120 NGY =  120 NGZ =  120
   dimension x,y,z NGXF=   240 NGYF=  240 NGZF=  240
   support grid    NGXF=   480 NGYF=  480 NGZF=  480
   ions per type =               1  64  64 128
   NGX,Y,Z   is equivalent  to a cutoff of  12.93, 12.93, 12.93 a.u.
   NGXF,Y,Z  is equivalent  to a cutoff of  25.86, 25.86, 25.86 a.u.

 SYSTEM =  LTO                                     
 POSCAR =  config 16                               

 Startparameter for this run:
   NWRITE =      2    write-flag & timer
   PREC   = accura    normal or accurate (medium, high low for compatibility)
   ISTART =      1    job   : 0-new  1-cont  2-samecut
   ICHARG =      0    charge: 1-file 2-atom 10-const
   ISPIN  =      2    spin polarized calculation?
   LNONCOLLINEAR =      F non collinear calculations
   LSORBIT =      F    spin-orbit coupling
   INIWAV =      1    electr: 0-lowe 1-rand  2-diag
   LASPH  =      T    aspherical Exc in radial PAW
   METAGGA=      F    non-selfconsistent MetaGGA calc.

 Electronic Relaxation 1
   ENCUT  =  500.0 eV  36.75 Ry    6.06 a.u.  28.13 28.13 28.13*2*pi/ulx,y,z
   ENINI  =  500.0     initial cutoff
   ENAUG  =  628.9 eV  augmentation charge cutoff
   NELM   =     60;   NELMIN=  2; NELMDL=  0     # of ELM steps 
   EDIFF  = 0.1E-05   stopping-criterion for ELM
   LREAL  =      T    real-space projection
   NLSPLINE    = F    spline interpolate recip. space projectors
   LCOMPAT=      F    compatible to vasp.4.4
   GGA_COMPAT  = T    GGA compatible to vasp.4.4-vasp.4.6
   LMAXPAW     = -100 max onsite density
   LMAXMIX     =    4 max onsite mixed and CHGCAR
   VOSKOWN=      0    Vosko Wilk Nusair interpolation
   ROPT   =   -0.00010  -0.00010  -0.00010  -0.00010
 Ionic relaxation
   EDIFFG = -.5E-01   stopping-criterion for IOM
   NSW    =    100    number of steps for IOM
   NBLOCK =      1;   KBLOCK =    100    inner block; outer block 
   IBRION =      1    ionic relax: 0-MD 1-quasi-New 2-CG
   NFREE  =      0    steps in history (QN), initial steepest desc. (CG)
   ISIF   =      2    stress and relaxation
   IWAVPR =     11    prediction:  0-non 1-charg 2-wave 3-comb
   ISYM   =      0    0-nonsym 1-usesym 2-fastsym
   LCORR  =      T    Harris-Foulkes like correction to forces

   POTIM  = 0.5000    time-step for ionic-motion
   TEIN   =    0.0    initial temperature
   TEBEG  =    0.0;   TEEND  =   0.0 temperature during run
   SMASS  =  -3.00    Nose mass-parameter (am)
   estimated Nose-frequenzy (Omega)   =  0.10E-29 period in steps =****** mass=  -0.544E-26a.u.
   SCALEE = 1.0000    scale energy and forces
   NPACO  =    256;   APACO  = 16.0  distance and # of slots for P.C.
   PSTRESS=    0.0 pullay stress

  Mass of Ions in am
   POMASS =   7.01 47.88 16.00 19.00
  Ionic Valenz
   ZVAL   =   3.00 10.00  6.00  7.00
  Atomic Wigner-Seitz radii
   RWIGS  =  -1.00 -1.00 -1.00 -1.00
  virtual crystal weights 
   VCA    =   1.00  1.00  1.00  1.00
   NELECT =    1923.0000    total number of electrons
   NUPDOWN=       1.0000    fix difference up-down

 DOS related values:
   EMIN   =  10.00;   EMAX   =-10.00  energy-range for DOS
   EFERMI =   0.00
   ISMEAR =     0;   SIGMA  =   0.01  broadening in eV -4-tet -1-fermi 0-gaus

 Electronic relaxation 2 (details)
   IALGO  =     38    algorithm
   LDIAG  =      T    sub-space diagonalisation (order eigenvalues)
   LSUBROT=      F    optimize rotation matrix (better conditioning)
   TURBO    =      0    0=normal 1=particle mesh
   IRESTART =      0    0=no restart 2=restart with 2 vectors
   NREBOOT  =      0    no. of reboots
   NMIN     =      0    reboot dimension
   EREF     =   0.00    reference energy to select bands
   IMIX   =      4    mixing-type and parameters
     AMIX     =   0.40;   BMIX     =  1.00
     AMIX_MAG =   1.60;   BMIX_MAG =  1.00
     AMIN     =   0.10
     WC   =   100.;   INIMIX=   1;  MIXPRE=   1;  MAXMIX= -45

 Intra band minimization:
   WEIMIN = 0.0010     energy-eigenvalue tresh-hold
   EBREAK =  0.21E-09  absolut break condition
   DEPER  =   0.30     relativ break condition  

   TIME   =   0.40     timestep for ELM

  volume/ion in A,a.u.               =      14.28        96.39
  Fermi-wavevector in a.u.,A,eV,Ry     =   1.319690  2.493853 23.695660  1.741582
  Thomas-Fermi vector in A             =   2.449570
 
 Write flags
   LWAVE        =      T    write WAVECAR
   LDOWNSAMPLE  =      F    k-point downsampling of WAVECAR
   LCHARG       =      T    write CHGCAR
   LVTOT        =      F    write LOCPOT, total local potential
   LVHAR        =      F    write LOCPOT, Hartree potential only
   LELF         =      F    write electronic localiz. function (ELF)
   LORBIT       =     11    0 simple, 1 ext, 2 COOP (PROOUT), +10 PAW based schemes


 Dipole corrections
   LMONO  =      F    monopole corrections only (constant potential shift)
   LDIPOL =      F    correct potential (dipole corrections)
   IDIPOL =      0    1-x, 2-y, 3-z, 4-all directions 
   EPSILON=  1.0000000 bulk dielectric constant

 LDA+U is selected, type is set to LDAUTYPE =  2
   angular momentum for each species LDAUL =    -1    2   -1   -1
   U (eV)           for each species LDAUU =   0.0  4.2  0.0  0.0
   J (eV)           for each species LDAUJ =   0.0  0.0  0.0  0.0
 Exchange correlation treatment:
   GGA     =    PS    GGA type
   LEXCH   =    14    internal setting for exchange type
   VOSKOWN=      0    Vosko Wilk Nusair interpolation
   LHFCALC =     F    Hartree Fock is set to
   LHFONE  =     F    Hartree Fock one center treatment
   AEXX    =    0.0000 exact exchange contribution

 Linear response parameters
   LEPSILON=     F    determine dielectric tensor
   LRPA    =     F    only Hartree local field effects (RPA)
   LNABLA  =     F    use nabla operator in PAW spheres
   LVEL    =     F    velocity operator in full k-point grid
   LINTERFAST=   F  fast interpolation
   KINTER  =     0    interpolate to denser k-point grid
   CSHIFT  =0.1000    complex shift for real part using Kramers Kronig
   OMEGAMAX=  -1.0    maximum frequency
   DEG_THRESHOLD= 0.2000000E-02 threshold for treating states as degnerate
   RTIME   =   -0.100 relaxation time in fs
  (WPLASMAI=    0.000 imaginary part of plasma frequency in eV, 0.658/RTIME)
   DFIELD  = 0.0000000 0.0000000 0.0000000 field for delta impulse in time
 
 Orbital magnetization related:
   ORBITALMAG=     F  switch on orbital magnetization
   LCHIMAG   =     F  perturbation theory with respect to B field
   DQ        =  0.001000  dq finite difference perturbation B field
   LLRAUG    =     F  two centre corrections for induced B field



--------------------------------------------------------------------------------------------------------


 quasi-Newton-method for relaxation of ions
 charge density and potential will be updated during run
 spin polarized calculation
 Variant of blocked Davidson
 Davidson routine will perform the subspace rotation
 perform sub-space diagonalisation
    after iterative eigenvector-optimisation
 modified Broyden-mixing scheme, WC =      100.0
 initial mixing is a Kerker type mixing with AMIX =  0.4000 and BMIX =      1.0000
 Hartree-type preconditioning will be used
 using additional bands          202
 real space projection scheme for non local part
 use partial core corrections
 calculate Harris-corrections to forces 
   (improved forces if not selfconsistent)
 use gradient corrections 
 use of overlap-Matrix (Vanderbilt PP)
 Gauss-broadening in eV      SIGMA  =   0.01


--------------------------------------------------------------------------------------------------------


  energy-cutoff  :      500.00
  volume of cell :     3671.03
      direct lattice vectors                 reciprocal lattice vectors
    15.426331000  0.000000000  0.000000000     0.064824228  0.000000000  0.000000000
     0.000000000 15.426331000  0.000000000     0.000000000  0.064824228  0.000000000
     0.000000000  0.000000000 15.426331000     0.000000000  0.000000000  0.064824228

  length of vectors
    15.426331000 15.426331000 15.426331000     0.064824228  0.064824228  0.064824228


 
 old parameters found on file WAVECAR:
  energy-cutoff  :      500.00
  volume of cell :     3671.03
      direct lattice vectors                 reciprocal lattice vectors
    15.426331000  0.000000000  0.000000000     0.064824228  0.000000000  0.000000000
     0.000000000 15.426331000  0.000000000     0.000000000  0.064824228  0.000000000
     0.000000000  0.000000000 15.426331000     0.000000000  0.000000000  0.064824228

  length of vectors

 
 k-points in units of 2pi/SCALE and weight: Title                                   
   0.01620606  0.01620606  0.01620606       0.250
  -0.01620606  0.01620606  0.01620606       0.250
   0.01620606 -0.01620606  0.01620606       0.250
  -0.01620606 -0.01620606  0.01620606       0.250
 
 k-points in reciprocal lattice and weights: Title                                   
   0.25000000  0.25000000  0.25000000       0.250
  -0.25000000  0.25000000  0.25000000       0.250
   0.25000000 -0.25000000  0.25000000       0.250
  -0.25000000 -0.25000000  0.25000000       0.250
 
 position of ions in fractional coordinates (direct lattice) 
   0.16847440  0.87540546  0.88408250
   0.99520366  0.99480015  0.99448779
   0.99954446  0.99182125  0.49343165
   0.00631928  0.49573050  0.99743064
   0.99375841  0.50284361  0.50692560
   0.49476863  0.99337426  0.99950032
   0.50093723  0.00809877  0.49975566
   0.50461348  0.49548294  0.99575852
   0.49146027  0.49928319  0.49521438
   0.00664527  0.00313218  0.25606242
   0.00050840  0.00832264  0.75618500
   0.99358978  0.49388961  0.25122150
   0.99286478  0.49946415  0.74181750
   0.50591788  0.00840685  0.25020597
   0.49245891  0.00516045  0.75243548
   0.49291175  0.49672779  0.25724459
   0.50078149  0.50430943  0.75815574
   0.99576665  0.25775850  0.00114639
   0.99859073  0.24802877  0.49100125
   0.99762049  0.75743688  0.00761947
   0.99688163  0.75645237  0.50617078
   0.49538570  0.25804404  0.00105280
   0.50832635  0.24560921  0.49894974
   0.50785088  0.75569120  0.99981511
   0.50594401  0.75288797  0.50984778
   0.99976548  0.25837315  0.25486132
   0.00658837  0.24324454  0.74721759
   0.00617550  0.74887801  0.24371874
   0.99223724  0.75054641  0.74354133
   0.50818981  0.24195131  0.25147564
   0.50685916  0.24302692  0.75018903
   0.50669840  0.75149852  0.25155080
   0.50139094  0.74204548  0.74419257
   0.25784308  0.00115499  0.00908579
   0.25045984  0.99380444  0.50557993
   0.24437103  0.50790929  0.99608365
   0.25374275  0.49454542  0.50774634
   0.75669996  0.99956416  0.99384318
   0.74996357  0.00685886  0.49442654
   0.74206984  0.50106009  0.00487413
   0.75521773  0.49804422  0.50533647
   0.24484990  0.00308403  0.24504886
   0.25841633  0.00013567  0.74189907
   0.25521127  0.49224106  0.25084848
   0.24673841  0.50658428  0.74251757
   0.74435431  0.00048395  0.25549575
   0.74711189  0.00666536  0.75607216
   0.75567837  0.49897582  0.24263488
   0.75729793  0.49841389  0.74259461
   0.25739884  0.25155619  0.00568304
   0.25312337  0.25612691  0.50560669
   0.25178752  0.74225062  0.99255737
   0.25134323  0.75514314  0.49193634
   0.75734490  0.25119212  0.00698548
   0.74272932  0.24274790  0.49771477
   0.74118540  0.74911343  0.99501471
   0.74095517  0.75250586  0.49494558
   0.25124490  0.25717451  0.24271255
   0.24408087  0.25107547  0.74338535
   0.24354212  0.74862070  0.25459058
   0.24797275  0.74249605  0.75374846
   0.74230563  0.25082144  0.24220877
   0.74420363  0.24233870  0.75066245
   0.74512963  0.75015920  0.25703186
   0.75673641  0.75069598  0.75767025
   0.00713731  0.50252542  0.62438688
   0.99797207  0.00653204  0.37587706
   0.00520940  0.00062086  0.87264602
   0.49989699  0.49317749  0.37497906
   0.49461266  0.49675408  0.87483406
   0.99205713  0.74808330  0.12651266
   0.99697732  0.74571883  0.62403369
   0.49492737  0.75263605  0.62489878
   0.99451888  0.24659578  0.37615406
   0.25888782  0.00940260  0.12638932
   0.25849031  0.00863770  0.62471522
   0.23908914  0.50009940  0.62499548
   0.75067900  0.49215766  0.12550537
   0.74629341  0.49397542  0.62405920
   0.74842020  0.99946043  0.37594539
   0.74322478  0.99886153  0.87385719
   0.24598906  0.24284699  0.12510039
   0.25209768  0.24286888  0.62528162
   0.74241630  0.25793854  0.12614204
   0.25042823  0.75134781  0.37319980
   0.23671570  0.77013376  0.88110952
   0.74745449  0.75228048  0.37451784
   0.74315532  0.75203298  0.87630773
   0.12436321  0.50679236  0.99469130
   0.62603138  0.51075682  0.99840489
   0.12577342  0.00401283  0.24961469
   0.62488153  0.00210118  0.24725850
   0.62440034  0.25715442  0.49428978
   0.62455384  0.73813812  0.00962176
   0.62423057  0.76257838  0.50176886
   0.12431068  0.25182115  0.74947973
   0.12482064  0.75140438  0.24687384
   0.62555657  0.24431607  0.26186069
   0.62543294  0.25269156  0.74755307
   0.62270863  0.75294913  0.24645291
   0.37548297  0.99536321  0.98901174
   0.37534804  0.50536880  0.50364191
   0.87326387  0.99577567  0.99755180
   0.87507719  0.50278358  0.49865638
   0.37525507  0.99739704  0.76194489
   0.37389341  0.49546755  0.24841903
   0.87559025  0.49713607  0.25249227
   0.87517675  0.50869658  0.74672439
   0.37592714  0.25070231  0.00353731
   0.87428570  0.25152775  0.00496042
   0.87402532  0.74309206  0.75437143
   0.51029336  0.12250094  0.49525380
   0.99678851  0.12620506  0.74446676
   0.49420541  0.12488629  0.26231072
   0.50160873  0.12332002  0.74788244
   0.50262978  0.62491482  0.75018042
   0.00340086  0.37509855  0.00393504
   0.01141368  0.87466529  0.99856614
   0.99543689  0.87513214  0.49812223
   0.50617935  0.37379233  0.00713113
   0.50774591  0.87532838  0.00490013
   0.00718539  0.37390174  0.24724432
   0.26004553  0.62417349  0.99024735
   0.74161809  0.12500227  0.50419492
   0.24620429  0.62058903  0.75866204
   0.75055685  0.12475715  0.74433673
   0.25258915  0.37214192  0.49786935
   0.25278425  0.87649261  0.50244619
   0.24132891  0.37416449  0.24977178
   0.99845206  0.00088967  0.12641432
   0.00144521  0.99805670  0.62369002
   0.99986920  0.50840583  0.12495364
   0.49057730  0.00711602  0.12621139
   0.49209828  0.99613364  0.62316775
   0.50237875  0.50730404  0.12720168
   0.50766280  0.49992382  0.62445336
   0.00352429  0.49651085  0.37570410
   0.99514615  0.49822986  0.87287092
   0.50675142  0.98919661  0.37680245
   0.51758568  0.99939509  0.87510726
   0.00735961  0.24513919  0.12701096
   0.99933070  0.25754698  0.62115624
   0.50872600  0.23844775  0.12674560
   0.49628237  0.24720960  0.62286736
   0.49058481  0.74594755  0.12689497
   0.99551207  0.25086910  0.87407512
   0.99707165  0.75005099  0.37507503
   0.00486664  0.75157050  0.87527497
   0.49083038  0.26214331  0.37574786
   0.50033931  0.25135714  0.87459873
   0.49823347  0.75523386  0.37548983
   0.50839020  0.75284961  0.87480106
   0.24515205  0.50194800  0.12394904
   0.75162512  0.00335234  0.12625490
   0.74884348  0.99539126  0.62329291
   0.24994044  0.99789997  0.37538348
   0.23410622  0.98041201  0.87483873
   0.24690449  0.50516975  0.37450648
   0.25865924  0.48648384  0.87375160
   0.74597650  0.50587664  0.37464158
   0.75237048  0.50523193  0.87408959
   0.25742554  0.75075743  0.12490505
   0.25307719  0.74581714  0.61980119
   0.75125878  0.26067973  0.62290361
   0.75670994  0.74864348  0.12632157
   0.75232249  0.74906307  0.62456817
   0.25310833  0.24714697  0.37397964
   0.25178118  0.25602004  0.87529077
   0.76214153  0.24366463  0.37414678
   0.75215864  0.24511024  0.87587472
   0.12682554  0.00679056  0.00344668
   0.12489985  0.00364571  0.50169781
   0.12287149  0.49811075  0.49197392
   0.62492145  0.00550744  0.00978593
   0.62370207  0.98373758  0.50571794
   0.62530039  0.49295220  0.49762291
   0.12646716  0.99733389  0.74459527
   0.12385116  0.50790295  0.24858896
   0.12226637  0.48921152  0.76180020
   0.62305794  0.99524469  0.73830271
   0.62516149  0.50033571  0.24977288
   0.62649122  0.49187630  0.75503476
   0.12493214  0.24579499  0.99452279
   0.12343921  0.24672042  0.49802199
   0.12384221  0.73828689  0.01066434
   0.12361821  0.75130621  0.49819308
   0.62621973  0.24470322  0.99431139
   0.12455265  0.23647778  0.25641854
   0.11841543  0.76180785  0.75009778
   0.62661468  0.75521497  0.74397067
   0.37742331  0.00774896  0.49127312
   0.37376184  0.49208121  0.00765862
   0.87453549  0.00820069  0.50599791
   0.87467219  0.49474054  0.99897461
   0.37719228  0.99505549  0.25933407
   0.37513429  0.49723480  0.74081895
   0.87400650  0.99848180  0.24855075
   0.87354390  0.99567889  0.74611387
   0.37893477  0.24083822  0.49839506
   0.37693050  0.76127855  0.99518040
   0.37718711  0.74330761  0.49525563
   0.87409756  0.24809600  0.50506883
   0.87197687  0.76118272  0.99534165
   0.87207671  0.74223638  0.49887859
   0.37816167  0.25758305  0.24584138
   0.37602556  0.24695721  0.75216933
   0.37701991  0.75010137  0.25148564
   0.37893953  0.75581721  0.76003071
   0.87413287  0.25560799  0.24437150
   0.87398987  0.25315450  0.74672754
   0.87323942  0.74873042  0.25396779
   0.99954432  0.12613374  0.00069682
   0.99929882  0.12551347  0.50895275
   0.98955330  0.62580858  0.99507245
   0.00347920  0.62654279  0.49226536
   0.50065857  0.12376890  0.99693688
   0.48683302  0.62742656  0.99912069
   0.50869895  0.62669151  0.49650096
   0.99129636  0.12743696  0.24561606
   0.99807616  0.62368447  0.25628212
   0.01218702  0.62474358  0.75556226
   0.49988681  0.62613443  0.25549648
   0.99993685  0.37362572  0.49821111
   0.49260180  0.37170798  0.50711921
   0.48758769  0.87835105  0.49919416
   0.99347938  0.37439244  0.75008596
   0.99617074  0.87637949  0.25277317
   0.99550538  0.87643878  0.74792707
   0.50503223  0.37151082  0.24036138
   0.49609287  0.37244107  0.74466014
   0.49727676  0.87639481  0.24532754
   0.50329754  0.87619000  0.75202127
   0.25019256  0.12452751  0.98497745
   0.24851986  0.12378034  0.49227423
   0.24466538  0.62611958  0.49758502
   0.74886514  0.12555957  0.00287390
   0.76538054  0.62576705  0.00330891
   0.74197178  0.62563923  0.50167164
   0.26085435  0.12628175  0.25849030
   0.24825408  0.12361368  0.76563626
   0.25206584  0.62398149  0.24562672
   0.75948725  0.12595084  0.24815451
   0.74796959  0.62514098  0.24729007
   0.73828316  0.62483947  0.74750206
   0.24487836  0.37558356  0.00475161
   0.23364296  0.87659506  0.00932775
   0.74382079  0.37495732  0.98831441
   0.75570274  0.37228868  0.48977573
   0.73957107  0.87494720  0.00832904
   0.76220489  0.87666329  0.50302724
   0.25523407  0.37402420  0.74905359
   0.25342117  0.87645351  0.24611345
   0.24444721  0.87576212  0.74237139
   0.74694753  0.37410698  0.26397337
   0.75519796  0.37376831  0.75753874
   0.75333676  0.87548673  0.24377821
   0.75138141  0.87551323  0.74533290
 
 position of ions in cartesian coordinates  (Angst):
   2.59894181 13.50429431 13.63814930
  15.35234106 15.34611644 15.34129778
  15.41930370 15.30016296  7.61183996
   0.09748326  7.64730275 15.38669514
  15.33004624  7.75703199  7.82000217
   7.63246469 15.32412008 15.41862276
   7.72762351  0.12493434  7.70939615
   7.78433462  7.64348383 15.36090058
   7.58142873  7.70210776  7.63934095
   0.10251212  0.04831812  3.95010363
   0.00784280  0.12838777 11.66516006
  15.32744489  7.61890467  3.87542606
  15.31626079  7.70489936 11.44352232
   7.80445669  0.12968677  3.85976011
   7.59683419  0.07960685 11.60731878
   7.60381987  7.66268729  3.96834018
   7.72522108  7.77964426 11.69556138
  15.36102595  3.97626787  0.01768453
  15.40459118  3.82617398  7.57434775
  15.38962395 11.68447201  0.11754040
  15.37822593 11.66928466  7.80835800
   7.64198379  3.98067277  0.01624090
   7.84161052  3.78884900  7.69696379
   7.83427571 11.65754265 15.42347888
   7.80485970 11.61429899  7.86508055
  15.42271323  3.98574968  3.93157508
   0.10163442  3.75237079 11.52682583
   0.09526527 11.55244006  3.75968595
  15.30658006 11.57817742 11.47011474
   7.83950425  3.73242097  3.87934643
   7.81897722  3.74901368 11.57266428
   7.81649728 11.59286492  3.88050593
   7.73462253 11.44703916 11.48016093
   3.97757274  0.01781721  0.14016041
   3.86367637 15.33075629  7.79924329
   3.76974834  7.83517682 15.36591608
   3.91431967  7.62902134  7.83266306
  11.67310410 15.41960765 15.33135378
  11.56918632  0.10580697  7.62718742
  11.44741502  7.72951878  0.07518989
  11.65023866  7.68299499  7.79548761
   3.77713557  0.04757522  3.78020486
   3.98641579  0.00209291 11.44478070
   3.93697353  7.59347353  3.86967169
   3.80626831  7.81473673 11.45432186
  11.48265592  0.00746555  3.94136200
  11.52519524  0.10282201 11.66341934
  11.65734469  7.69736612  3.74296589
  11.68232852  7.68869766 11.45551026
   3.97071967  3.88058900  0.08766842
   3.90476485  3.95109855  7.79965614
   3.88415763 11.45020378 15.31151850
   3.87730383 11.64908809  7.58877285
  11.68305312  3.87497279  0.10776027
  11.45758826  3.74470950  7.67791280
  11.43377125 11.55607166 15.34942629
  11.43021966 11.60840451  7.63519433
   3.87578703  3.96725904  3.74416416
   3.76527223  3.87317326 11.46770844
   3.75696140 11.54847075  3.92739862
   3.82530977 11.45398980 11.62757326
  11.45105237  3.86925459  3.73639260
  11.48033154  3.73839697 11.57996736
  11.49461634 11.57220412  3.96505860
  11.67366629 11.58048470 11.68807201
   0.11010257  7.75212343  9.63199867
  15.39504749  0.10076542  5.79840392
   0.08036196  0.00957756 13.46172641
   7.71157642  7.60791928  5.78455102
   7.63005859  7.66309286 13.49547982
  15.30380166 11.54018064  1.95162621
  15.37970214 11.50370552  9.62655032
   7.63491344 11.61041288  9.63989544
  15.34177745  3.80406818  5.80267708
   3.99368914  0.14504768  1.94972351
   3.98755712  0.13324800  9.63706369
   3.68826819  7.71469891  9.64138722
  11.58022270  7.59218695  1.93608732
  11.51256922  7.62022837  9.62694384
  11.54537778 15.41800745  5.79945795
  11.46523145 15.40876855 13.48041022
   3.79470861  3.74623811  1.92983995
   3.88894219  3.74657571  9.64580130
  11.45275958  3.97904533  1.94590885
   3.86318880 11.59053996  5.75710371
   3.65165470 11.88033835 13.59228704
  11.53048031 11.60492765  5.77743610
  11.46415996 11.60110962 13.51821305
   1.91846801  7.81794665 15.34443717
   9.65736731  7.87910381 15.40172430
   1.94022240  0.06190321  3.85063889
   9.63962928  0.03241347  3.81429149
   9.63220635  3.96694914  7.62507778
   9.63457422 11.38676298  0.14842853
   9.62958736 11.76378646  7.74045257
   1.91765767  3.88467649 11.56172240
   1.92552445 11.59141263  3.80835753
   9.65004274  3.76890063  4.03954968
   9.64813553  3.89810361 11.53200113
   9.60610940 11.61524246  3.80186412
   5.79232463 15.35480228 15.25682254
   5.79024313  7.79598634  7.76934677
  13.47125751 15.36116503 15.38856428
  13.49923041  7.75610588  7.69243838
   5.78880888 15.38617683 11.75401404
   5.76780344  7.64324650  3.83219425
  13.50714504  7.66898552  3.89502933
  13.50076619  7.84732175 11.51921763
   5.79917650  3.86741676  0.05456766
  13.48702067  3.88015030  0.07652113
  13.48300391 11.46318416 11.63718341
   7.87195423  1.88974002  7.63994898
  15.37678942  1.94688099 11.48439071
   7.62377625  1.92653728  4.04649207
   7.73798230  1.90237542 11.53708204
   7.75373343  9.64014281 11.57253144
   0.05246283  5.78639434  0.06070317
   0.17607122 13.49287635 15.40421183
  15.35593899 13.50007804  7.68419837
   7.80849014  5.76624426  0.11000720
   7.83265650 13.50310533  0.07559110
   0.11084415  5.76793194  3.81407278
   4.01154843  9.62870683 15.27588344
  11.44044609  1.92832638  7.77787775
   3.79802895  9.57341174 11.70337173
  11.57833837  1.92454508 11.48238485
   3.89652391  5.74078440  7.68029733
   3.89953345 13.52106511  7.75090117
   3.72281968  5.77198525  3.85306211
  15.40245193  0.01372433  1.95010909
   0.02229433 15.39635294  9.62124870
  15.42431325  7.84283657  1.92757628
   7.56780782  0.10977402  1.94697873
   7.59127089 15.36668722  9.61319197
   7.74986082  7.82583997  1.96225525
   7.83137436  7.71199028  9.63302430
   0.05436693  7.65934066  5.79573585
  15.35145387  7.68585879 13.46519572
   7.81731509 15.25967435  5.81267925
   7.98444806 15.41699943 13.49969421
   0.11353181  3.78159830  1.95931306
  15.41600612  3.97300498  9.58216169
   7.84777564  3.67837384  1.95521961
   7.65581606  3.81353708  9.60855809
   7.56792367 11.50723382  1.95752374
  15.35709869  3.86998985 13.48377204
  15.38115726 11.57053479  5.78603158
   0.07507436 11.59397536 13.50228146
   7.57171186  4.04390943  5.79641086
   7.71839978  3.87751848 13.49184946
   7.68591439 11.65048755  5.79243037
   7.84259555 11.61370722 13.49497073
   3.78179668  7.74321596  1.91207888
  11.59481796  0.05171430  1.94764993
  11.55190736 15.35523500  9.61512268
   3.85566390 15.39393529  5.79078976
   3.61140001 15.12416015 13.49555178
   3.80883034  7.79291578  5.77726086
   3.99016304  7.50466067 13.47878140
  11.50768044  7.80382053  5.77934501
  11.60631607  7.79387497 13.48399541
   3.97113160 11.58143261  1.92682662
   3.90405246 11.50522211  9.56125836
  11.58916656  4.02133174  9.60911731
  11.67325800 11.54882211  1.94867837
  11.60557575 11.55529493  9.63479531
   3.90453294  3.81257092  5.76913366
   3.88405987  3.94944988 13.50252518
  11.75704747  3.75885125  5.77171204
  11.60304812  3.78115171 13.51153327
   1.95645274  0.10475335  0.05316960
   1.92674646  0.05623993  7.73935653
   1.89545624  7.68402126  7.58935258
   9.64024510  0.08495964  0.15096096
   9.62143460 15.17546157  7.80137239
   9.64609073  7.60444386  7.67649579
   1.95092424 15.38520266 11.48637317
   1.91056893  7.83507895  3.83481563
   1.88612148  7.54673885 11.75178208
   9.61149808 15.35297403 11.38930204
   9.64394802  7.71834433  3.85307915
   9.66446100  7.58784658 11.64741609
   1.92724462  3.79171489 15.34183781
   1.90421406  3.80599086  7.68265206
   1.91043098 11.38905788  0.16451163
   1.90697535 11.58989828  7.68529134
   9.66027277  3.77487280 15.33857662
   1.92139040  3.64798449  3.95559728
   1.82671567 11.75190002 11.57125668
   9.66636554 11.65019618 11.47673781
   5.82225694  0.11953797  7.57854178
   5.76577389  7.59100766  0.11814442
  13.49087399  0.12650653  7.80569126
  13.49298270  7.63203133 15.41051302
   5.81869300 15.35005538  4.00057328
   5.78694579  7.67050866 11.42811837
  13.48271356 15.40291069  3.83422607
  13.47557734 15.35967213 11.50979953
   5.84557321  3.71525015  7.68840719
   5.81465463 11.74373486 15.35198221
   5.81861319 11.46650928  7.63997730
  13.48411825  3.82721104  7.79135896
  13.45140377 11.74225658 15.35446978
  13.45294398 11.44998401  7.69586627
   5.83364716  3.97356141  3.79243055
   5.80069470  3.80964373 11.60321299
   5.81603398 11.57131204  3.87950077
   5.84564664 11.65948643 11.72448526
  13.48466304  3.94309343  3.76975567
  13.48245709  3.90524515 11.51926615
  13.47088041 11.55016324  3.91779115
  15.41930154  1.94578078  0.01074941
  15.41551430  1.93621240  7.85127364
  15.26517669  9.65393027 15.35031696
   0.05367131  9.66525640  7.59384842
   7.72332483  1.90930001 15.37907837
   7.51004724  9.67888975 15.41276642
   7.84735844  9.66755061  7.65918815
  15.29206572  1.96588470  3.78895459
  15.39665318  9.62116313  3.95349287
   0.18800102  9.63750121 11.65555344
   7.71141942  9.65895698  3.94137319
  15.42535677  5.76367399  7.68556953
   7.59903842  5.73409032  7.82298882
   7.52168904 13.54973400  7.70073438
  15.32574182  5.77550167 11.57107432
  15.36725961 13.51932014  3.89936266
  15.35699556 13.52023465 11.53777062
   7.79079432  5.73104883  3.70789423
   7.65289276  5.74539926 11.48737382
   7.67115589 13.51955638  3.78450379
   7.76403446 13.51639702 11.60092909
   3.85955325  1.92100264 15.19458819
   3.83374960  1.90947646  7.59398529
   3.77428917  9.65872786  7.67591114
  11.55224149  1.93692346  0.04433367
  11.80701351  9.65328966  0.05104437
  11.44590233  9.65131782  7.73895277
   4.02402549  1.94806401  3.98755689
   3.82964969  1.90690558 11.81095832
   3.88845108  9.62574496  3.78911916
  11.71610165  1.94295941  3.82811356
  11.53842643  9.64363173  3.81477847
  11.38900033  9.63898053 11.53121417
   3.77757464  5.79387631  0.07329983
   3.60425360 13.52264560  0.14389289
  11.47442568  5.78421579 15.24606524
  11.65772067  5.74304839  7.55544254
  11.40886808 13.49722508  0.12848657
  11.75802490 13.52369811  7.75986467
   3.93732526  5.76982104 11.55514866
   3.90935891 13.52046197  3.79662752
   3.77092353 13.50979640 11.45206677
  11.52265982  5.77109804  4.07214064
  11.64993376  5.76587361 11.68604338
  11.62122219 13.50554812  3.76060331
  11.59105836 13.50595693 11.49775206
 


--------------------------------------------------------------------------------------------------------


 k-point  1 :   0.2500 0.2500 0.2500  plane waves:   93161
 k-point  2 :  -0.2500 0.2500 0.2500  plane waves:   93161
 k-point  3 :   0.2500-0.2500 0.2500  plane waves:   93161
 k-point  4 :  -0.2500-0.2500 0.2500  plane waves:   93161

 maximum and minimum number of plane-waves per node :     11686    11606

 maximum number of plane-waves:     93161
 maximum index in each direction: 
   IXMAX=   28   IYMAX=   28   IZMAX=   27
   IXMIN=  -28   IYMIN=  -28   IZMIN=  -28


 real space projection operators:
  total allocation   :     105551.23 KBytes
  max/ min on nodes  :      13239.38      13157.45


 parallel 3D FFT for wavefunctions:
    minimum data exchange during FFTs selected (reduces bandwidth)
 parallel 3D FFT for charge:
    minimum data exchange during FFTs selected (reduces bandwidth)


 total amount of memory used by VASP MPI-rank0   291470. kBytes
=======================================================================

   base      :      30000. kBytes
   nonlr-proj:      49435. kBytes
   fftplans  :      27976. kBytes
   grid      :      34041. kBytes
   one-center:       1026. kBytes
   wavefun   :     148992. kBytes
 
     INWAV:  cpu time   53.6092: real time   53.9898
 Broyden mixing: mesh for mixing (old mesh)
   NGX = 57   NGY = 57   NGZ = 57
  (NGX  =240   NGY  =240   NGZ  =240)
  gives a total of 185193 points

 charge density for first step will be calculated from the start-wavefunctions


--------------------------------------------------------------------------------------------------------


 Maximum index for non-local projection operator          970
 Maximum index for augmentation-charges         3297 (set IRDMAX)


--------------------------------------------------------------------------------------------------------


 initial charge from wavefunction
 First call to EWALD:  gamma=   0.115
 Maximum number of real-space cells 3x 3x 3
 Maximum number of reciprocal cells 3x 3x 3

    FEWALD:  cpu time    0.0367: real time    0.0378


--------------------------------------- Iteration      1(   1)  ---------------------------------------


    POTLOK:  cpu time    0.3137: real time    0.3582
    SETDIJ:  cpu time    1.2719: real time    1.4170
     EDDAV:  cpu time  132.2030: real time  133.0255
       DOS:  cpu time    0.0036: real time    0.0117
    CHARGE:  cpu time    5.1480: real time    5.2572
    MIXING:  cpu time    0.0198: real time    0.0246
    --------------------------------------------
      LOOP:  cpu time  138.9600: real time  140.0942

 eigenvalue-minimisations  : 23160
 total energy-change (2. order) :-0.1838352E+04  (-0.3490699E+03)
 number of electron    1923.0000021 magnetization       1.0000000
 augmentation part      502.6816010 magnetization       0.6242996

 Broyden mixing:
  rms(total) = 0.72372E+01    rms(broyden)= 0.72345E+01
  rms(prec ) = 0.11133E+02
  weight for this iteration     100.00

 Free energy of the ion-electron system (eV)
  ---------------------------------------------------
  alpha Z        PSCENC =      6118.73324990
  Ewald energy   TEWEN  =   -103256.85972971
  -Hartree energ DENC   =    -65370.45853493
  -exchange      EXHF   =         0.00000000
  -V(xc)+E(xc)   XCENC  =      8960.23150140
  PAW double counting   =    198580.83474514  -199576.57288014
  entropy T*S    EENTRO =        -0.00721711
  eigenvalues    EBANDS =    -25871.50522844
  atomic energy  EATOM  =    178577.25249613
  Solvation  Ediel_sol  =         0.00000000
  ---------------------------------------------------
  free energy    TOTEN  =     -1838.35159777 eV

  energy without entropy =    -1838.34438066  energy(sigma->0) =    -1838.34798921


--------------------------------------------------------------------------------------------------------




--------------------------------------- Iteration      1(   2)  ---------------------------------------


    POTLOK:  cpu time    0.3847: real time    0.4050
    SETDIJ:  cpu time    1.4736: real time    1.4949
     EDDAV:  cpu time  149.0404: real time  149.8800
       DOS:  cpu time    0.0029: real time    0.0028
    CHARGE:  cpu time    5.2247: real time    5.2773
    MIXING:  cpu time    0.0643: real time    0.0684
    --------------------------------------------
      LOOP:  cpu time  156.1905: real time  157.1285

 eigenvalue-minimisations  : 26676
 total energy-change (2. order) : 0.2040986E+02  (-0.2485269E+03)
 number of electron    1923.0000021 magnetization       1.0000000
 augmentation part      501.2504927 magnetization       0.3187720

 Broyden mixing:
  rms(total) = 0.66069E+01    rms(broyden)= 0.66028E+01
  rms(prec ) = 0.92471E+01
  weight for this iteration     100.00

 eigenvalues of (default mixing * dielectric matrix)
  average eigenvalue GAMMA=   0.5212
  0.5212

 Free energy of the ion-electron system (eV)
  ---------------------------------------------------
  alpha Z        PSCENC =      6118.73324990
  Ewald energy   TEWEN  =   -103256.85972971
  -Hartree energ DENC   =    -65382.22589045
  -exchange      EXHF   =         0.00000000
  -V(xc)+E(xc)   XCENC  =      8958.46768186
  PAW double counting   =    200090.46847712  -201065.39290092
  entropy T*S    EENTRO =        -0.00212290
  eigenvalues    EBANDS =    -25858.38299841
  atomic energy  EATOM  =    178577.25249613
  Solvation  Ediel_sol  =         0.00000000
  ---------------------------------------------------
  free energy    TOTEN  =     -1817.94173738 eV

  energy without entropy =    -1817.93961448  energy(sigma->0) =    -1817.94067593


--------------------------------------------------------------------------------------------------------




--------------------------------------- Iteration      1(   3)  ---------------------------------------


    POTLOK:  cpu time    0.3838: real time    0.4039
    SETDIJ:  cpu time    1.4395: real time    1.4751
     EDDAV:  cpu time  147.9311: real time  148.5976
       DOS:  cpu time    0.0018: real time    0.0018
    CHARGE:  cpu time    5.2348: real time    5.2387
    MIXING:  cpu time    0.0081: real time    0.0093
    --------------------------------------------
      LOOP:  cpu time  154.9991: real time  155.7265

 eigenvalue-minimisations  : 26496
 total energy-change (2. order) : 0.8797480E+00  (-0.7516965E+02)
 number of electron    1923.0000020 magnetization       1.0000000
 augmentation part      492.9816481 magnetization       0.5818758

 Broyden mixing:
  rms(total) = 0.47462E+01    rms(broyden)= 0.47444E+01
  rms(prec ) = 0.54444E+01
  weight for this iteration     100.00

 eigenvalues of (default mixing * dielectric matrix)
  average eigenvalue GAMMA=   0.4826
  0.4826  0.4826

 Free energy of the ion-electron system (eV)
  ---------------------------------------------------
  alpha Z        PSCENC =      6118.73324990
  Ewald energy   TEWEN  =   -103256.85972971
  -Hartree energ DENC   =    -65438.60418815
  -exchange      EXHF   =         0.00000000
  -V(xc)+E(xc)   XCENC  =      8961.61138683
  PAW double counting   =    200066.01774100  -201039.65120405
  entropy T*S    EENTRO =        -0.00000000
  eigenvalues    EBANDS =    -25805.56174131
  atomic energy  EATOM  =    178577.25249613
  Solvation  Ediel_sol  =         0.00000000
  ---------------------------------------------------
  free energy    TOTEN  =     -1817.06198935 eV

  energy without entropy =    -1817.06198935  energy(sigma->0) =    -1817.06198935


--------------------------------------------------------------------------------------------------------




--------------------------------------- Iteration      1(   4)  ---------------------------------------


    POTLOK:  cpu time    0.2894: real time    0.2918
    SETDIJ:  cpu time    1.4602: real time    1.4607
     EDDAV:  cpu time  144.0350: real time  144.9038
       DOS:  cpu time    0.0018: real time    0.0018
    CHARGE:  cpu time    5.2805: real time    5.2839
    MIXING:  cpu time    0.0098: real time    0.0105
    --------------------------------------------
      LOOP:  cpu time  151.0768: real time  151.9524

 eigenvalue-minimisations  : 25548
 total energy-change (2. order) : 0.2876809E+02  (-0.1986176E+02)
 number of electron    1923.0000020 magnetization       1.0000000
 augmentation part      494.4498179 magnetization       0.5745467

 Broyden mixing:
  rms(total) = 0.32743E+01    rms(broyden)= 0.32738E+01
  rms(prec ) = 0.37940E+01
  weight for this iteration     100.00

 eigenvalues of (default mixing * dielectric matrix)
  average eigenvalue GAMMA=   0.6292
  0.5578  0.6649  0.6649

 Free energy of the ion-electron system (eV)
  ---------------------------------------------------
  alpha Z        PSCENC =      6118.73324990
  Ewald energy   TEWEN  =   -103256.85972971
  -Hartree energ DENC   =    -65419.25596835
  -exchange      EXHF   =         0.00000000
  -V(xc)+E(xc)   XCENC  =      8966.90518159
  PAW double counting   =    200157.25909478  -201143.86480217
  entropy T*S    EENTRO =        -0.00000000
  eigenvalues    EBANDS =    -25788.46341912
  atomic energy  EATOM  =    178577.25249613
  Solvation  Ediel_sol  =         0.00000000
  ---------------------------------------------------
  free energy    TOTEN  =     -1788.29389694 eV

  energy without entropy =    -1788.29389694  energy(sigma->0) =    -1788.29389694


--------------------------------------------------------------------------------------------------------




--------------------------------------- Iteration      1(   5)  ---------------------------------------


    POTLOK:  cpu time    0.3064: real time    0.3093
    SETDIJ:  cpu time    1.4096: real time    1.4101
     EDDAV:  cpu time  144.8824: real time  145.7869
       DOS:  cpu time    0.0021: real time    0.0021
    CHARGE:  cpu time    5.2304: real time    5.2503
    MIXING:  cpu time    0.0113: real time    0.0113
    --------------------------------------------
      LOOP:  cpu time  151.8421: real time  152.7700

 eigenvalue-minimisations  : 25908
 total energy-change (2. order) : 0.2250989E+02  (-0.6736663E+01)
 number of electron    1923.0000020 magnetization       1.0000000
 augmentation part      494.9648925 magnetization       0.5777219

 Broyden mixing:
  rms(total) = 0.17676E+01    rms(broyden)= 0.17673E+01
  rms(prec ) = 0.20504E+01
  weight for this iteration     100.00

 eigenvalues of (default mixing * dielectric matrix)
  average eigenvalue GAMMA=   0.7587
  0.9447  0.9447  0.5728  0.5728

 Free energy of the ion-electron system (eV)
  ---------------------------------------------------
  alpha Z        PSCENC =      6118.73324990
  Ewald energy   TEWEN  =   -103256.85972971
  -Hartree energ DENC   =    -65423.92520782
  -exchange      EXHF   =         0.00000000
  -V(xc)+E(xc)   XCENC  =      8970.58773850
  PAW double counting   =    199618.93017969  -200615.96487235
  entropy T*S    EENTRO =        -0.00000000
  eigenvalues    EBANDS =    -25754.53785935
  atomic energy  EATOM  =    178577.25249613
  Solvation  Ediel_sol  =         0.00000000
  ---------------------------------------------------
  free energy    TOTEN  =     -1765.78400501 eV

  energy without entropy =    -1765.78400501  energy(sigma->0) =    -1765.78400501


--------------------------------------------------------------------------------------------------------




--------------------------------------- Iteration      1(   6)  ---------------------------------------


    POTLOK:  cpu time    0.3435: real time    0.3444
    SETDIJ:  cpu time    1.4265: real time    1.4267
     EDDAV:  cpu time  150.4100: real time  151.3975
       DOS:  cpu time    0.0020: real time    0.0020
    CHARGE:  cpu time    5.2614: real time    5.2644
    MIXING:  cpu time    0.0360: real time    0.0364
    --------------------------------------------
      LOOP:  cpu time  157.4793: real time  158.4714

 eigenvalue-minimisations  : 27036
 total energy-change (2. order) : 0.6236214E+01  (-0.5446065E+01)
 number of electron    1923.0000020 magnetization       1.0000000
 augmentation part      496.6499438 magnetization       0.5802801

 Broyden mixing:
  rms(total) = 0.15591E+01    rms(broyden)= 0.15586E+01
  rms(prec ) = 0.16748E+01
  weight for this iteration     100.00

 eigenvalues of (default mixing * dielectric matrix)
  average eigenvalue GAMMA=   0.7374
  0.9322  0.9322  0.6528  0.6528  0.5169

 Free energy of the ion-electron system (eV)
  ---------------------------------------------------
  alpha Z        PSCENC =      6118.73324990
  Ewald energy   TEWEN  =   -103256.85972971
  -Hartree energ DENC   =    -65383.36252612
  -exchange      EXHF   =         0.00000000
  -V(xc)+E(xc)   XCENC  =      8971.69998354
  PAW double counting   =    199124.29396200  -200129.54131374
  entropy T*S    EENTRO =        -0.00000000
  eigenvalues    EBANDS =    -25781.76391265
  atomic energy  EATOM  =    178577.25249613
  Solvation  Ediel_sol  =         0.00000000
  ---------------------------------------------------
  free energy    TOTEN  =     -1759.54779065 eV

  energy without entropy =    -1759.54779065  energy(sigma->0) =    -1759.54779065


--------------------------------------------------------------------------------------------------------




--------------------------------------- Iteration      1(   7)  ---------------------------------------


    POTLOK:  cpu time    0.3160: real time    0.3163
    SETDIJ:  cpu time    1.4346: real time    1.4351
     EDDAV:  cpu time  150.2850: real time  151.2087
       DOS:  cpu time    0.0020: real time    0.0020
    CHARGE:  cpu time    5.2541: real time    5.2571
    MIXING:  cpu time    0.0088: real time    0.0092
    --------------------------------------------
      LOOP:  cpu time  157.3005: real time  158.2285

 eigenvalue-minimisations  : 26976
 total energy-change (2. order) : 0.1114961E+01  (-0.1543420E+01)
 number of electron    1923.0000020 magnetization       1.0000000
 augmentation part      496.8966346 magnetization       0.5805947

 Broyden mixing:
  rms(total) = 0.84373E+00    rms(broyden)= 0.84298E+00
  rms(prec ) = 0.90534E+00
  weight for this iteration     100.00

 eigenvalues of (default mixing * dielectric matrix)
  average eigenvalue GAMMA=   0.8644
  1.2875  1.2875  0.7569  0.7569  0.5487  0.5487

 Free energy of the ion-electron system (eV)
  ---------------------------------------------------
  alpha Z        PSCENC =      6118.73324990
  Ewald energy   TEWEN  =   -103256.85972971
  -Hartree energ DENC   =    -65376.00578863
  -exchange      EXHF   =         0.00000000
  -V(xc)+E(xc)   XCENC  =      8971.34711313
  PAW double counting   =    198945.15529725  -199950.05079297
  entropy T*S    EENTRO =        -0.00000000
  eigenvalues    EBANDS =    -25788.00467491
  atomic energy  EATOM  =    178577.25249613
  Solvation  Ediel_sol  =         0.00000000
  ---------------------------------------------------
  free energy    TOTEN  =     -1758.43282979 eV

  energy without entropy =    -1758.43282979  energy(sigma->0) =    -1758.43282979


--------------------------------------------------------------------------------------------------------




--------------------------------------- Iteration      1(   8)  ---------------------------------------


    POTLOK:  cpu time    0.2888: real time    0.2910
    SETDIJ:  cpu time    1.3996: real time    1.4001
     EDDAV:  cpu time  145.5389: real time  146.4572
       DOS:  cpu time    0.0020: real time    0.0020
    CHARGE:  cpu time    5.2713: real time    5.2749
    MIXING:  cpu time    0.0085: real time    0.0084
    --------------------------------------------
      LOOP:  cpu time  152.5090: real time  153.4337

 eigenvalue-minimisations  : 25896
 total energy-change (2. order) : 0.3192575E+00  (-0.7941830E+00)
 number of electron    1923.0000020 magnetization       1.0000000
[...]
   81        1.574   3.461   0.000   5.035
   82        1.574   3.461   0.000   5.035
   83        1.574   3.460   0.000   5.034
   84        1.576   3.472   0.000   5.048
   85        1.576   3.465   0.000   5.041
   86        1.568   3.485   0.000   5.053
   87        1.575   3.463   0.000   5.039
   88        1.574   3.464   0.000   5.039
   89        1.575   3.461   0.000   5.036
   90        1.575   3.456   0.000   5.032
   91        1.574   3.461   0.000   5.035
   92        1.574   3.461   0.000   5.035
   93        1.578   3.472   0.000   5.049
   94        1.577   3.470   0.000   5.047
   95        1.576   3.475   0.000   5.051
   96        1.575   3.465   0.000   5.039
   97        1.575   3.465   0.000   5.040
   98        1.576   3.474   0.000   5.050
   99        1.575   3.464   0.000   5.039
  100        1.576   3.459   0.000   5.034
  101        1.574   3.458   0.000   5.032
  102        1.575   3.460   0.000   5.035
  103        1.575   3.460   0.000   5.035
  104        1.574   3.461   0.000   5.035
  105        1.576   3.471   0.000   5.048
  106        1.575   3.463   0.000   5.038
  107        1.575   3.462   0.000   5.037
  108        1.576   3.472   0.000   5.048
  109        1.574   3.463   0.000   5.037
  110        1.575   3.461   0.000   5.036
  111        1.576   3.472   0.000   5.049
  112        1.577   3.464   0.000   5.040
  113        1.576   3.475   0.000   5.051
  114        1.577   3.475   0.000   5.052
  115        1.575   3.465   0.000   5.040
  116        1.575   3.464   0.000   5.038
  117        1.575   3.461   0.000   5.036
  118        1.573   3.462   0.000   5.035
  119        1.576   3.476   0.000   5.052
  120        1.575   3.459   0.000   5.034
  121        1.575   3.463   0.000   5.037
  122        1.577   3.468   0.000   5.045
  123        1.576   3.475   0.000   5.051
  124        1.576   3.471   0.000   5.047
  125        1.576   3.483   0.000   5.058
  126        1.576   3.471   0.000   5.047
  127        1.575   3.459   0.000   5.034
  128        1.575   3.460   0.000   5.034
  129        1.576   3.471   0.000   5.047
  130        1.737   4.369   0.000   6.106
  131        1.737   4.371   0.000   6.108
  132        1.737   4.379   0.000   6.117
  133        1.738   4.386   0.000   6.124
  134        1.738   4.383   0.000   6.121
  135        1.737   4.368   0.000   6.105
  136        1.736   4.367   0.000   6.103
  137        1.739   4.380   0.000   6.118
  138        1.738   4.381   0.000   6.119
  139        1.739   4.386   0.000   6.126
  140        1.739   4.385   0.000   6.124
  141        1.738   4.381   0.000   6.119
  142        1.738   4.380   0.000   6.118
  143        1.738   4.386   0.000   6.125
  144        1.739   4.387   0.000   6.125
  145        1.738   4.381   0.000   6.120
  146        1.737   4.382   0.000   6.119
  147        1.737   4.371   0.000   6.107
  148        1.736   4.367   0.000   6.103
  149        1.739   4.385   0.000   6.125
  150        1.738   4.388   0.000   6.127
  151        1.738   4.376   0.000   6.114
  152        1.738   4.380   0.000   6.118
  153        1.737   4.381   0.000   6.119
  154        1.737   4.371   0.000   6.108
  155        1.737   4.372   0.000   6.109
  156        1.737   4.374   0.000   6.111
  157        1.735   4.378   0.000   6.113
  158        1.738   4.375   0.000   6.113
  159        1.738   4.376   0.000   6.114
  160        1.737   4.368   0.000   6.105
  161        1.736   4.370   0.000   6.106
  162        1.737   4.371   0.000   6.107
  163        1.736   4.372   0.000   6.107
  164        1.738   4.379   0.000   6.116
  165        1.737   4.369   0.000   6.106
  166        1.736   4.369   0.000   6.105
  167        1.736   4.369   0.000   6.106
  168        1.737   4.370   0.000   6.106
  169        1.738   4.376   0.000   6.115
  170        1.738   4.379   0.000   6.117
  171        1.737   4.370   0.000   6.107
  172        1.738   4.388   0.000   6.126
  173        1.737   4.371   0.000   6.108
  174        1.737   4.368   0.000   6.105
  175        1.739   4.382   0.000   6.120
  176        1.737   4.367   0.000   6.103
  177        1.737   4.379   0.000   6.116
  178        1.737   4.369   0.000   6.105
  179        1.738   4.377   0.000   6.114
  180        1.738   4.379   0.000   6.117
  181        1.736   4.369   0.000   6.106
  182        1.738   4.377   0.000   6.114
  183        1.737   4.368   0.000   6.105
  184        1.738   4.380   0.000   6.118
  185        1.737   4.379   0.000   6.117
  186        1.737   4.381   0.000   6.119
  187        1.737   4.370   0.000   6.107
  188        1.738   4.378   0.000   6.116
  189        1.738   4.384   0.000   6.122
  190        1.738   4.381   0.000   6.119
  191        1.739   4.386   0.000   6.125
  192        1.737   4.369   0.000   6.106
  193        1.739   4.388   0.000   6.127
  194        1.736   4.367   0.000   6.104
  195        1.737   4.370   0.000   6.107
  196        1.737   4.381   0.000   6.118
  197        1.737   4.369   0.000   6.106
  198        1.737   4.382   0.000   6.119
  199        1.738   4.381   0.000   6.119
  200        1.737   4.378   0.000   6.116
  201        1.738   4.380   0.000   6.118
  202        1.738   4.379   0.000   6.118
  203        1.738   4.378   0.000   6.116
  204        1.738   4.378   0.000   6.116
  205        1.737   4.378   0.000   6.115
  206        1.737   4.369   0.000   6.105
  207        1.737   4.369   0.000   6.106
  208        1.737   4.381   0.000   6.118
  209        1.737   4.378   0.000   6.115
  210        1.737   4.370   0.000   6.107
  211        1.737   4.371   0.000   6.109
  212        1.737   4.368   0.000   6.104
  213        1.739   4.375   0.000   6.114
  214        1.736   4.367   0.000   6.103
  215        1.738   4.381   0.000   6.119
  216        1.736   4.367   0.000   6.104
  217        1.737   4.366   0.000   6.103
  218        1.737   4.380   0.000   6.117
  219        1.738   4.379   0.000   6.117
  220        1.738   4.381   0.000   6.119
  221        1.738   4.379   0.000   6.117
  222        1.737   4.380   0.000   6.118
  223        1.738   4.381   0.000   6.119
  224        1.738   4.381   0.000   6.119
  225        1.738   4.380   0.000   6.118
  226        1.738   4.379   0.000   6.118
  227        1.737   4.380   0.000   6.118
  228        1.738   4.379   0.000   6.116
  229        1.738   4.379   0.000   6.117
  230        1.737   4.369   0.000   6.106
  231        1.738   4.377   0.000   6.116
  232        1.737   4.369   0.000   6.106
  233        1.738   4.380   0.000   6.118
  234        1.737   4.370   0.000   6.107
  235        1.737   4.370   0.000   6.107
  236        1.738   4.387   0.000   6.126
  237        1.739   4.384   0.000   6.123
  238        1.737   4.380   0.000   6.117
  239        1.739   4.378   0.000   6.116
  240        1.738   4.379   0.000   6.117
  241        1.738   4.378   0.000   6.116
  242        1.738   4.387   0.000   6.125
  243        1.738   4.388   0.000   6.126
  244        1.738   4.380   0.000   6.117
  245        1.738   4.378   0.000   6.116
  246        1.738   4.379   0.000   6.116
  247        1.738   4.385   0.000   6.123
  248        1.738   4.379   0.000   6.116
  249        1.738   4.385   0.000   6.123
  250        1.738   4.378   0.000   6.116
  251        1.739   4.380   0.000   6.119
  252        1.737   4.381   0.000   6.118
  253        1.738   4.385   0.000   6.124
  254        1.739   4.387   0.000   6.126
  255        1.738   4.377   0.000   6.115
  256        1.739   4.386   0.000   6.125
  257        1.738   4.379   0.000   6.117
--------------------------------------------------
tot        345.5571195.486 112.6221653.665
 


 magnetization (x)
 
# of ion       s       p       d       tot
------------------------------------------
    1        0.000   0.000   0.000   0.000
    2       -0.000  -0.000  -0.000  -0.000
    3       -0.000  -0.000  -0.000  -0.000
    4        0.000  -0.000   0.000   0.000
    5       -0.000  -0.000   0.000  -0.000
    6       -0.000  -0.000   0.000   0.000
    7        0.000  -0.000   0.000   0.000
    8        0.000  -0.000   0.000   0.000
    9       -0.000  -0.000   0.000   0.000
   10       -0.000  -0.000   0.000   0.000
   11        0.000  -0.000   0.000   0.000
   12       -0.000  -0.000   0.000   0.000
   13       -0.000   0.000   0.000   0.000
   14        0.000  -0.000   0.000   0.000
   15        0.000   0.000   0.000   0.000
   16       -0.000  -0.000   0.000   0.000
   17       -0.000  -0.000   0.000   0.000
   18        0.000  -0.000   0.000   0.000
   19       -0.000  -0.000   0.000   0.000
   20        0.000   0.000   0.001   0.001
   21        0.000   0.000   0.003   0.003
   22       -0.000  -0.000   0.000  -0.000
   23       -0.000  -0.000   0.000   0.000
   24        0.000   0.000   0.002   0.002
   25        0.000   0.000   0.003   0.003
   26       -0.000  -0.000  -0.000  -0.000
   27        0.000   0.000   0.000   0.000
   28        0.000   0.000   0.001   0.001
   29       -0.000  -0.000   0.007   0.007
   30       -0.000  -0.000   0.000   0.000
   31       -0.000   0.000   0.000   0.000
   32        0.000   0.000   0.000   0.000
   33       -0.000   0.000   0.011   0.011
   34        0.000  -0.000   0.000   0.000
   35       -0.000  -0.000   0.000  -0.000
   36       -0.000  -0.000   0.000   0.000
   37        0.000  -0.000  -0.000  -0.000
   38       -0.000  -0.000  -0.000  -0.000
   39       -0.000  -0.000   0.000   0.000
   40       -0.000  -0.000   0.000   0.000
   41       -0.000  -0.000  -0.000  -0.000
   42        0.000  -0.000   0.000   0.000
   43       -0.000  -0.000   0.000   0.000
   44        0.000  -0.000   0.000   0.000
   45       -0.000  -0.000  -0.002  -0.003
   46       -0.000  -0.000   0.000  -0.000
   47        0.000  -0.000   0.000   0.000
   48       -0.000  -0.000  -0.000  -0.000
   49        0.000  -0.000   0.000   0.000
   50       -0.000  -0.000   0.000   0.000
   51       -0.000  -0.000  -0.000  -0.000
   52        0.000   0.001   0.043   0.044
   53        0.000  -0.000   0.011   0.011
   54       -0.000   0.000   0.000   0.000
   55       -0.000   0.000   0.000   0.000
   56        0.000   0.000   0.000   0.000
   57        0.000   0.000   0.001   0.001
   58       -0.000  -0.000   0.000   0.000
   59       -0.000  -0.000  -0.000  -0.000
   60       -0.000  -0.000   0.001   0.001
   61        0.005   0.006   0.893   0.905
   62       -0.000  -0.000  -0.000  -0.000
   63        0.000   0.000   0.000   0.000
   64        0.000   0.000   0.000   0.000
   65       -0.000  -0.000   0.001   0.001
   66       -0.000  -0.000   0.000  -0.000
   67       -0.000  -0.000   0.000  -0.000
   68       -0.000  -0.000   0.000  -0.000
   69        0.000  -0.000   0.000  -0.000
   70       -0.000  -0.000   0.000  -0.000
   71       -0.000  -0.000   0.000  -0.000
   72       -0.000  -0.001   0.000  -0.001
   73       -0.000  -0.001   0.000  -0.001
   74        0.000   0.000   0.000   0.000
   75       -0.000  -0.000   0.000  -0.000
   76       -0.000  -0.000   0.000  -0.000
   77       -0.000  -0.000   0.000  -0.000
   78        0.000   0.000   0.000   0.000
   79        0.000  -0.000   0.000  -0.000
   80        0.000  -0.000   0.000   0.000
   81       -0.000  -0.000   0.000  -0.000
   82       -0.000  -0.000   0.000  -0.000
   83        0.000   0.000   0.000   0.000
   84        0.000   0.000   0.000   0.000
   85       -0.000  -0.001   0.000  -0.001
   86       -0.001  -0.020   0.000  -0.021
   87       -0.000  -0.000   0.000  -0.000
   88       -0.000  -0.000   0.000  -0.000
   89       -0.000  -0.000   0.000  -0.000
   90       -0.000  -0.000   0.000  -0.000
   91        0.000  -0.000   0.000  -0.000
   92        0.000  -0.000   0.000  -0.000
   93        0.000  -0.000   0.000  -0.000
   94       -0.000  -0.000   0.000  -0.000
   95       -0.000  -0.000   0.000  -0.000
   96        0.000  -0.000   0.000  -0.000
   97       -0.000  -0.000   0.000  -0.000
   98        0.000   0.000   0.000   0.000
   99       -0.000  -0.000   0.000  -0.000
  100       -0.000  -0.000   0.000  -0.000
  101       -0.000  -0.000   0.000  -0.000
  102       -0.000  -0.000   0.000  -0.000
  103       -0.000  -0.000   0.000  -0.000
  104        0.000  -0.000   0.000  -0.000
  105       -0.000  -0.000   0.000  -0.000
  106        0.000  -0.000   0.000  -0.000
  107       -0.000  -0.000   0.000  -0.000
  108       -0.000  -0.000   0.000  -0.000
  109       -0.000  -0.000   0.000  -0.000
  110       -0.000  -0.000   0.000  -0.000
  111       -0.000  -0.001   0.000  -0.001
  112       -0.000  -0.000   0.000  -0.000
  113       -0.000  -0.000   0.000  -0.000
  114        0.000  -0.000   0.000  -0.000
  115       -0.000  -0.000   0.000  -0.000
  116       -0.000  -0.001   0.000  -0.001
  117       -0.000  -0.000   0.000  -0.000
  118       -0.000  -0.000   0.000  -0.000
  119       -0.000  -0.000   0.000  -0.000
  120       -0.000  -0.000   0.000  -0.000
  121       -0.000  -0.000   0.000  -0.000
  122        0.000  -0.000   0.000  -0.000
  123       -0.000  -0.002   0.000  -0.002
  124        0.000  -0.000   0.000  -0.000
  125       -0.001  -0.018   0.000  -0.018
  126       -0.000  -0.000   0.000  -0.000
  127       -0.000  -0.000   0.000  -0.000
  128       -0.000  -0.000   0.000  -0.000
  129       -0.000  -0.000   0.000  -0.000
  130       -0.000  -0.000   0.000  -0.000
  131       -0.000  -0.000   0.000  -0.000
  132        0.000  -0.000   0.000   0.000
  133       -0.000  -0.000   0.000  -0.000
  134       -0.000  -0.000   0.000  -0.000
  135       -0.000  -0.000   0.000  -0.000
  136       -0.000  -0.000   0.000  -0.000
  137        0.000  -0.000   0.000  -0.000
  138       -0.000  -0.000   0.000  -0.000
  139       -0.000  -0.000   0.000  -0.000
  140       -0.000  -0.000   0.000  -0.000
  141        0.000   0.000   0.000   0.000
  142       -0.000  -0.000   0.000  -0.000
  143        0.000   0.000   0.000   0.000
  144       -0.000  -0.000   0.000  -0.000
  145        0.000   0.000   0.000   0.000
  146       -0.000  -0.000   0.000  -0.000
  147       -0.000  -0.000   0.000  -0.000
  148        0.000   0.000   0.000   0.000
  149        0.000   0.000   0.000   0.000
  150        0.000  -0.000   0.000  -0.000
  151        0.000  -0.000   0.000   0.000
  152        0.000  -0.000   0.000  -0.000
  153       -0.000  -0.000   0.000  -0.000
  154        0.000   0.000   0.000   0.000
  155        0.000  -0.000   0.000  -0.000
  156       -0.000  -0.000   0.000  -0.000
  157       -0.000  -0.000   0.000  -0.000
  158       -0.000  -0.000   0.000  -0.000
  159       -0.000  -0.000   0.000  -0.000
  160       -0.000   0.000   0.000   0.000
  161       -0.000  -0.000   0.000  -0.000
  162       -0.000  -0.000   0.000  -0.000
  163       -0.000  -0.000   0.000  -0.000
  164        0.000  -0.000   0.000  -0.000
  165       -0.000  -0.000   0.000  -0.000
  166       -0.000  -0.000   0.000  -0.000
  167       -0.000  -0.000   0.000  -0.000
  168       -0.000  -0.000   0.000  -0.000
  169       -0.000   0.000   0.000  -0.000
  170        0.000  -0.000   0.000  -0.000
  171       -0.000  -0.000   0.000  -0.000
  172       -0.000  -0.000   0.000  -0.000
  173        0.000   0.000   0.000   0.000
  174       -0.000  -0.000   0.000  -0.000
  175       -0.000  -0.000   0.000  -0.000
  176       -0.000  -0.000   0.000  -0.000
  177        0.000  -0.000   0.000  -0.000
  178       -0.000  -0.000   0.000  -0.000
  179       -0.000  -0.000   0.000  -0.000
  180       -0.000  -0.000   0.000  -0.000
  181        0.000   0.000   0.000   0.000
  182       -0.000  -0.000   0.000  -0.000
  183       -0.000  -0.000   0.000  -0.000
  184        0.000   0.000   0.000   0.000
  185       -0.000   0.000   0.000   0.000
  186       -0.000  -0.000   0.000  -0.000
  187        0.000   0.000   0.000   0.000
  188       -0.000   0.000   0.000   0.000
  189       -0.000   0.001   0.000   0.001
  190       -0.000  -0.000   0.000  -0.000
  191       -0.000  -0.000   0.000  -0.000
  192       -0.000  -0.000   0.000  -0.000
  193        0.000  -0.000   0.000  -0.000
  194       -0.000  -0.000   0.000  -0.000
  195        0.000  -0.000   0.000  -0.000
  196       -0.000  -0.000   0.000  -0.000
  197        0.000   0.000   0.000   0.000
  198       -0.000  -0.000   0.000  -0.000
  199        0.000   0.000   0.000   0.000
  200       -0.000  -0.000   0.000  -0.000
  201       -0.000  -0.000   0.000  -0.000
  202       -0.000   0.000   0.000  -0.000
  203       -0.000  -0.000   0.000  -0.000
  204       -0.000   0.000   0.000   0.000
  205       -0.000   0.000   0.000   0.000
  206       -0.000  -0.000   0.000  -0.000
  207       -0.000  -0.000   0.000  -0.000
  208       -0.000   0.000   0.000  -0.000
  209       -0.000   0.000   0.000   0.000
  210       -0.000  -0.000   0.000  -0.000
  211       -0.000  -0.000   0.000  -0.000
  212       -0.000  -0.000   0.000  -0.000
  213       -0.000  -0.000   0.000  -0.000
  214        0.000  -0.000   0.000  -0.000
  215       -0.000  -0.000   0.000  -0.000
  216       -0.000  -0.000   0.000  -0.000
  217       -0.000  -0.000   0.000  -0.000
  218       -0.000  -0.000   0.000  -0.000
  219       -0.000  -0.000   0.000  -0.000
  220       -0.000  -0.000   0.000  -0.000
  221       -0.000  -0.000   0.000  -0.000
  222       -0.000  -0.000   0.000  -0.000
  223        0.000  -0.000   0.000  -0.000
  224       -0.000  -0.000   0.000  -0.000
  225       -0.000  -0.000   0.000  -0.000
  226        0.000  -0.000   0.000  -0.000
  227       -0.000  -0.000   0.000  -0.000
  228       -0.000  -0.000   0.000  -0.000
  229        0.000   0.000   0.000   0.000
  230       -0.000  -0.000   0.000  -0.000
  231       -0.000  -0.000   0.000  -0.000
  232       -0.000  -0.000   0.000  -0.000
  233       -0.000  -0.000   0.000  -0.000
  234       -0.000  -0.000   0.000  -0.000
  235       -0.000  -0.000   0.000  -0.000
  236        0.000  -0.000   0.000  -0.000
  237       -0.000  -0.000   0.000  -0.000
  238       -0.000  -0.000   0.000  -0.000
  239       -0.000  -0.000   0.000  -0.000
  240       -0.000  -0.000   0.000  -0.000
  241       -0.000  -0.000   0.000  -0.000
  242        0.000   0.000   0.000   0.000
  243       -0.000  -0.000   0.000  -0.000
  244       -0.000  -0.000   0.000  -0.000
  245       -0.000  -0.000   0.000  -0.000
  246       -0.000  -0.000   0.000  -0.000
  247        0.000   0.000   0.000   0.000
  248        0.000  -0.000   0.000  -0.000
  249       -0.000  -0.000   0.000  -0.000
  250       -0.000  -0.000   0.000  -0.000
  251       -0.000  -0.000   0.000  -0.000
  252       -0.000  -0.000   0.000  -0.000
  253       -0.000  -0.003   0.000  -0.003
  254       -0.000  -0.000   0.000  -0.000
  255       -0.000  -0.000   0.000  -0.000
  256       -0.000  -0.000   0.000  -0.000
  257       -0.000  -0.000   0.000  -0.000
--------------------------------------------------
tot          0.001  -0.045   0.978   0.935
 

 total amount of memory used by VASP MPI-rank0   291470. kBytes
=======================================================================

   base      :      30000. kBytes
   nonlr-proj:      49435. kBytes
   fftplans  :      27976. kBytes
   grid      :      34041. kBytes
   one-center:       1026. kBytes
   wavefun   :     148992. kBytes
 
  
  
 General timing and accounting informations for this job:
 ========================================================
  
                  Total CPU time used (sec):     3960.871
                            User time (sec):     3558.690
                          System time (sec):      402.181
                         Elapsed time (sec):     3995.138
  
                   Maximum memory used (kb):      632896.
                   Average memory used (kb):           0.
  
                          Minor page faults:       299957
                          Major page faults:           26
                 Voluntary context switches:        29945
