 vasp.5.4.4.18Apr17-6-g9f103f2a35 (build Apr 30 2017 20:10:35) complex          
  
 executed on             LinuxIFC date 2017.08.04  13:06:21
 running on   64 total cores
 distrk:  each k-point on   64 cores,    1 groups
 distr:  one band on NCORES_PER_BAND=   8 cores,    8 groups


--------------------------------------------------------------------------------------------------------


 INCAR:
 POTCAR:   PAW_PBE Ti_pv 07Sep2000                
 POTCAR:   PAW_PBE O 08Apr2002                    
 POTCAR:    PAW_PBE F 08Apr2002                   
 POTCAR:   PAW_PBE Ti_pv 07Sep2000                
   VRHFIN =Ti: d3 s1                                                            
   LEXCH  = PE                                                                  
   EATOM  =  1042.3781 eV,   76.6126 Ry                                         
                                                                                
   TITEL  = PAW_PBE Ti_pv 07Sep2000                                             
   LULTRA =        F    use ultrasoft PP ?                                      
   IUNSCR =        1    unscreen: 0-lin 1-nonlin 2-no                           
   RPACOR =    2.200    partial core radius                                     
   POMASS =   47.880; ZVAL   =   10.000    mass and valenz                      
   RCORE  =    2.500    outmost cutoff radius                                   
   RWIGS  =    2.500; RWIGS  =    1.323    wigner-seitz radius (au A)           
   ENMAX  =  222.338; ENMIN  =  166.753 eV                                      
   RCLOC  =    1.701    cutoff for local pot                                    
   LCOR   =        T    correct aug charges                                     
   LPAW   =        T    paw PP                                                  
   EAUG   =  482.848                                                            
   DEXC   =    -.008                                                            
   RMAX   =    3.092    core radius for proj-oper                               
   RAUG   =    1.300    factor for augmentation sphere                          
   RDEP   =    2.538    radius for radial grids                                 
   QCUT   =   -4.042; QGAM   =    8.085    optimization parameters              
                                                                                
   Description                                                                  
     l     E      TYP  RCUT    TYP  RCUT                                        
     1   .000     23  2.300                                                     
     1  -.100     23  2.300                                                     
     2   .000     23  2.500                                                     
     2   .000     23  2.500                                                     
     0   .000     23  2.500                                                     
     0  1.500     23  2.500                                                     
     3   .000      7   .000                                                     
  local pseudopotential read in
  partial core-charges read in
  atomic valenz-charges read in
  non local Contribution for L=           1  read in
    real space projection operators read in
  non local Contribution for L=           1  read in
    real space projection operators read in
  non local Contribution for L=           2  read in
    real space projection operators read in
  non local Contribution for L=           2  read in
    real space projection operators read in
  non local Contribution for L=           0  read in
    real space projection operators read in
  non local Contribution for L=           0  read in
    real space projection operators read in
    PAW grid and wavefunctions read in
 
   number of l-projection  operators is LMAX  =           6
   number of lm-projection operators is LMMAX =          18
 
 POTCAR:   PAW_PBE O 08Apr2002                    
   VRHFIN =O: s2p4                                                              
   LEXCH  = PE                                                                  
   EATOM  =   432.3788 eV,   31.7789 Ry                                         
                                                                                
   TITEL  = PAW_PBE O 08Apr2002                                                 
   LULTRA =        F    use ultrasoft PP ?                                      
   IUNSCR =        0    unscreen: 0-lin 1-nonlin 2-no                           
   RPACOR =     .000    partial core radius                                     
   POMASS =   16.000; ZVAL   =    6.000    mass and valenz                      
   RCORE  =    1.520    outmost cutoff radius                                   
   RWIGS  =    1.550; RWIGS  =     .820    wigner-seitz radius (au A)           
   ENMAX  =  400.000; ENMIN  =  300.000 eV                                      
   ICORE  =        2    local potential                                         
   LCOR   =        T    correct aug charges                                     
   LPAW   =        T    paw PP                                                  
   EAUG   =  605.392                                                            
   DEXC   =     .000                                                            
   RMAX   =    2.264    core radius for proj-oper                               
   RAUG   =    1.300    factor for augmentation sphere                          
   RDEP   =    1.550    radius for radial grids                                 
   QCUT   =   -5.520; QGAM   =   11.041    optimization parameters              
                                                                                
   Description                                                                  
     l     E      TYP  RCUT    TYP  RCUT                                        
     0   .000     23  1.200                                                     
     0  -.700     23  1.200                                                     
     1   .000     23  1.520                                                     
     1   .600     23  1.520                                                     
     2   .000      7  1.500                                                     
  local pseudopotential read in
  atomic valenz-charges read in
  non local Contribution for L=           0  read in
    real space projection operators read in
  non local Contribution for L=           0  read in
    real space projection operators read in
  non local Contribution for L=           1  read in
    real space projection operators read in
  non local Contribution for L=           1  read in
    real space projection operators read in
    PAW grid and wavefunctions read in
 
   number of l-projection  operators is LMAX  =           4
   number of lm-projection operators is LMMAX =           8
 
 POTCAR:    PAW_PBE F 08Apr2002                   
   VRHFIN =F: s2p5                                                              
   LEXCH  = PE                                                                  
   EATOM  =   659.6475 eV,   48.4827 Ry                                         
                                                                                
   TITEL  = PAW_PBE F 08Apr2002                                                 
   LULTRA =        F    use ultrasoft PP ?                                      
   IUNSCR =        1    unscreen: 0-lin 1-nonlin 2-no                           
   RPACOR =    1.200    partial core radius                                     
   POMASS =   18.998; ZVAL   =    7.000    mass and valenz                      
   RCORE  =    1.520    outmost cutoff radius                                   
   RWIGS  =    1.500; RWIGS  =    0.794    wigner-seitz radius (au A)           
   ENMAX  =  400.000; ENMIN  =  300.000 eV                                      
   ICORE  =        2    local potential                                         
   LCOR   =        T    correct aug charges                                     
   LPAW   =        T    paw PP                                                  
   EAUG   =  613.614                                                            
   RMAX   =    1.555    core radius for proj-oper                               
   RAUG   =    1.300    factor for augmentation sphere                          
   RDEP   =    1.539    radius for radial grids                                 
   RDEPT  =    1.299    core radius for aug-charge                              
                                                                                
   Atomic configuration                                                         
    4 entries                                                                   
     n  l   j            E        occ.                                          
     1  0  0.50      -663.3661   2.0000                                         
     2  0  0.50       -29.8995   2.0000                                         
     2  1  0.50       -11.1114   5.0000                                         
     3  2  1.50       -10.8847   0.0000                                         
   Description                                                                  
     l       E           TYP  RCUT    TYP  RCUT                                 
     0    -29.8995018     23  1.200                                             
     0     -9.5240782     23  1.200                                             
     1    -11.1113914     23  1.520                                             
     1      1.3605826     23  1.520                                             
     2    -10.8846608      7  1.500                                             
  local pseudopotential read in
  partial core-charges read in
  partial kinetic energy density read in
  atomic valenz-charges read in
  non local Contribution for L=           0  read in
    real space projection operators read in
  non local Contribution for L=           0  read in
    real space projection operators read in
  non local Contribution for L=           1  read in
    real space projection operators read in
  non local Contribution for L=           1  read in
    real space projection operators read in
    PAW grid and wavefunctions read in
 
   number of l-projection  operators is LMAX  =           4
   number of lm-projection operators is LMMAX =           8
 
 Optimization of the real space projectors (new method)

 maximal supplied QI-value         = 15.12
 optimisation between [QCUT,QGAM] = [ 13.45, 27.06] = [ 50.69,205.06] Ry 
 Optimized for a Real-space Cutoff    1.49 Angstroem

   l    n(q)    QCUT    max X(q) W(low)/X(q) W(high)/X(q)  e(spline) 
   1     12    13.455     4.841    0.13E-05    0.83E-06    0.56E-07
   1     12    13.455     5.701    0.32E-04    0.25E-04    0.17E-06
   2     11    13.455     4.569    0.64E-05    0.34E-05    0.50E-07
   2     11    13.455    32.276    0.49E-04    0.38E-04    0.46E-06
   0     12    13.455    30.046    0.17E-04    0.41E-05    0.51E-07
   0     12    13.455    45.433    0.12E-04    0.27E-04    0.38E-06
 Optimization of the real space projectors (new method)

 maximal supplied QI-value         = 24.76
 optimisation between [QCUT,QGAM] = [ 13.37, 26.98] = [ 50.04,203.89] Ry 
 Optimized for a Real-space Cutoff    1.17 Angstroem

   l    n(q)    QCUT    max X(q) W(low)/X(q) W(high)/X(q)  e(spline) 
   0      9    13.368     4.192    0.20E-04    0.58E-05    0.56E-07
   0      9    13.368     8.473    0.60E-04    0.52E-04    0.21E-06
   1      9    13.368     2.474    0.22E-04    0.17E-04    0.28E-07
   1      9    13.368     3.912    0.94E-04    0.97E-04    0.20E-06
 Optimization of the real space projectors (new method)

 maximal supplied QI-value         = 24.76
 optimisation between [QCUT,QGAM] = [ 13.37, 26.98] = [ 50.04,203.89] Ry 
 Optimized for a Real-space Cutoff    1.17 Angstroem

   l    n(q)    QCUT    max X(q) W(low)/X(q) W(high)/X(q)  e(spline) 
   0      9    13.368    14.049    0.39E-04    0.34E-04    0.16E-06
   0      9    13.368     8.945    0.54E-04    0.47E-04    0.20E-06
   1      9    13.368     7.086    0.99E-04    0.10E-03    0.23E-06
   1      9    13.368     6.747    0.86E-04    0.89E-04    0.21E-06

 ----------------------------------------------------------------------------- 
|                                                                             |
|  ADVICE TO THIS USER RUNNING 'VASP/VAMP'   (HEAR YOUR MASTER'S VOICE ...):  |
|                                                                             |
|      You enforced a specific xc-type in the INCAR file,                     |
|      a different type was found on the POTCAR file                          |
|          I HOPE YOU KNOW, WHAT YOU ARE  DOING                               |
|                                                                             |
 ----------------------------------------------------------------------------- 

 PAW_PBE Ti_pv 07Sep2000                :
 energy of atom  1       EATOM=-1042.3781
 kinetic energy error for atom=    0.0006 (will be added to EATOM!!)
 PAW_PBE O 08Apr2002                    :
 energy of atom  2       EATOM= -432.3788
 kinetic energy error for atom=    0.0091 (will be added to EATOM!!)
  PAW_PBE F 08Apr2002                   :
 energy of atom  3       EATOM= -659.6475
 kinetic energy error for atom=    0.0140 (will be added to EATOM!!)
 
 
 POSCAR: TiOF2 2x2x2 config 0406                 
  positions in direct lattice
  velocities in cartesian coordinates
 exchange correlation table for  LEXCH =       14
   RHO(1)=    0.500       N(1)  =     2000
   RHO(2)=  100.500       N(2)  =     4000

 VTST: version 3.1, (03/28/14)

 CHAIN: initializing optimizer
 
 OPT: Using VASP QUASI-newton optimizer
 CHAIN: Read ICHAIN            0
 
 POSCAR: TiOF2 2x2x2 config 0406                 
  positions in direct lattice
  velocities in cartesian coordinates
 


--------------------------------------------------------------------------------------------------------


 ion  position               nearest neighbor table
   1  0.000  0.000  1.000-  17 1.93  21 1.93  24 1.94  26 1.95  30 1.98  29 1.98
   2  0.001  1.000  0.500-  18 1.86  29 1.86  30 1.86  22 1.87  27 1.90  25 1.90
   3  0.001  0.500  1.000-  19 1.93  23 1.93  24 1.95  26 1.96  31 1.96  32 1.96
   4  0.979  0.500  0.500-   9 1.72  31 1.90  32 1.90  25 2.00  27 2.00  20 2.04
   5  0.500  0.988  0.000-  11 1.85  13 1.93  14 1.93  21 2.02  17 2.02  28 2.03
   6  0.500  1.000  0.500-  14 1.92  13 1.92  12 1.93  10 1.93  18 2.07  22 2.08
   7  0.500  0.511  0.000-  11 1.88  15 1.91  16 1.91  19 2.01  23 2.02  28 2.04
   8  0.500  0.500  0.500-  16 1.93  15 1.93  12 1.97  10 1.97   9 2.06  20 2.07
   9  0.760  0.500  0.500-   4 1.72   8 2.06
  10  0.499  0.248  0.500-   6 1.93   8 1.97
  11  0.500  0.751  1.000-   5 1.85   7 1.88
  12  0.499  0.752  0.500-   6 1.93   8 1.97
  13  0.500  0.999  0.251-   6 1.92   5 1.93
  14  0.500  0.999  0.749-   6 1.92   5 1.93
  15  0.499  0.501  0.249-   7 1.91   8 1.93
  16  0.499  0.501  0.751-   7 1.91   8 1.93
  17  0.244  0.003  0.000-   1 1.93   5 2.02
  18  0.237  1.000  0.500-   2 1.86   6 2.07
  19  0.246  0.497  1.000-   3 1.93   7 2.01
  20  0.237  0.500  0.500-   4 2.04   8 2.07
  21  0.756  0.003  1.000-   1 1.93   5 2.02
  22  0.764  1.000  0.500-   2 1.87   6 2.08
  23  0.756  0.497  0.000-   3 1.93   7 2.02
  24  1.000  0.249  1.000-   1 1.94   3 1.95
  25  0.003  0.244  0.500-   2 1.90   4 2.00
  26  0.999  0.751  1.000-   1 1.95   3 1.96
  27  0.003  0.756  0.500-   2 1.90   4 2.00
  28  0.500  0.249  1.000-   5 2.03   7 2.04
  29  1.000  1.000  0.258-   2 1.86   1 1.98
  30  1.000  1.000  0.742-   2 1.86   1 1.98
  31  0.007  0.500  0.255-   4 1.90   3 1.96
  32  0.007  0.500  0.745-   4 1.90   3 1.96
 

IMPORTANT INFORMATION: All symmetrisations will be switched off!
NOSYMM: (Re-)initialisation of all symmetry stuff for point group C_1.

 
 
 KPOINTS: Title                                   

Automatic generation of k-mesh.
Space group operators:
 irot       det(A)        alpha          n_x          n_y          n_z        tau_x        tau_y        tau_z
    1     1.000000     0.000001     1.000000     0.000000     0.000000     0.000000     0.000000     0.000000
 
 Subroutine IBZKPT returns following result:
 ===========================================
 
 Found      4 irreducible k-points:
 
 Following reciprocal coordinates:
            Coordinates               Weight
  0.250000  0.250000  0.250000      2.000000
 -0.250000  0.250000  0.250000      2.000000
  0.250000 -0.250000  0.250000      2.000000
 -0.250000 -0.250000  0.250000      2.000000
 
 Following cartesian coordinates:
            Coordinates               Weight
  0.031702  0.032070  0.032493      2.000000
 -0.031703  0.032072  0.032493      2.000000
  0.031703 -0.032071  0.032492      2.000000
 -0.031701 -0.032070  0.032492      2.000000
 


--------------------------------------------------------------------------------------------------------




 Dimension of arrays:
   k-points           NKPTS =      4   k-points in BZ     NKDIM =      4   number of bands    NBANDS=    160
   number of dos      NEDOS =   3001   number of ions     NIONS =     32
   non local maximal  LDIM  =      6   non local SUM 2l+1 LMDIM =     18
   total plane-waves  NPLWV = 343000
   max r-space proj   IRMAX =  10056   max aug-charges    IRDMAX= 225417
   dimension x,y,z NGX =    70 NGY =   70 NGZ =   70
   dimension x,y,z NGXF=   140 NGYF=  140 NGZF=  140
   support grid    NGXF=   280 NGYF=  280 NGZF=  280
   ions per type =               8   8  16
   NGX,Y,Z   is equivalent  to a cutoff of  14.76, 14.93, 15.12 a.u.
   NGXF,Y,Z  is equivalent  to a cutoff of  29.51, 29.86, 30.25 a.u.

 SYSTEM =  LTO                                     
 POSCAR =  TiOF2 2x2x2 config 0406                 

 Startparameter for this run:
   NWRITE =      2    write-flag & timer
   PREC   = accura    normal or accurate (medium, high low for compatibility)
   ISTART =      1    job   : 0-new  1-cont  2-samecut
   ICHARG =      0    charge: 1-file 2-atom 10-const
   ISPIN  =      2    spin polarized calculation?
   LNONCOLLINEAR =      F non collinear calculations
   LSORBIT =      F    spin-orbit coupling
   INIWAV =      1    electr: 0-lowe 1-rand  2-diag
   LASPH  =      T    aspherical Exc in radial PAW
   METAGGA=      F    non-selfconsistent MetaGGA calc.

 Electronic Relaxation 1
   ENCUT  =  700.0 eV  51.45 Ry    7.17 a.u.  17.01 16.82 16.60*2*pi/ulx,y,z
   ENINI  =  700.0     initial cutoff
   ENAUG  =  613.6 eV  augmentation charge cutoff
   NELM   =     60;   NELMIN=  2; NELMDL=  0     # of ELM steps 
   EDIFF  = 0.1E-05   stopping-criterion for ELM
   LREAL  =      T    real-space projection
   NLSPLINE    = F    spline interpolate recip. space projectors
   LCOMPAT=      F    compatible to vasp.4.4
   GGA_COMPAT  = T    GGA compatible to vasp.4.4-vasp.4.6
   LMAXPAW     = -100 max onsite density
   LMAXMIX     =    4 max onsite mixed and CHGCAR
   VOSKOWN=      0    Vosko Wilk Nusair interpolation
   ROPT   =   -0.00010  -0.00010  -0.00010
 Ionic relaxation
   EDIFFG = -.1E-01   stopping-criterion for IOM
   NSW    =    100    number of steps for IOM
   NBLOCK =      1;   KBLOCK =    100    inner block; outer block 
   IBRION =      1    ionic relax: 0-MD 1-quasi-New 2-CG
   NFREE  =      0    steps in history (QN), initial steepest desc. (CG)
   ISIF   =      3    stress and relaxation
   IWAVPR =     11    prediction:  0-non 1-charg 2-wave 3-comb
   ISYM   =      0    0-nonsym 1-usesym 2-fastsym
   LCORR  =      T    Harris-Foulkes like correction to forces

   POTIM  = 0.5000    time-step for ionic-motion
   TEIN   =    0.0    initial temperature
   TEBEG  =    0.0;   TEEND  =   0.0 temperature during run
   SMASS  =  -3.00    Nose mass-parameter (am)
   estimated Nose-frequenzy (Omega)   =  0.10E-29 period in steps =****** mass=  -0.142E-26a.u.
   SCALEE = 1.0000    scale energy and forces
   NPACO  =    256;   APACO  = 16.0  distance and # of slots for P.C.
   PSTRESS=    0.0 pullay stress

  Mass of Ions in am
   POMASS =  47.88 16.00 19.00
  Ionic Valenz
   ZVAL   =  10.00  6.00  7.00
  Atomic Wigner-Seitz radii
   RWIGS  =  -1.00 -1.00 -1.00
  virtual crystal weights 
   VCA    =   1.00  1.00  1.00
   NELECT =     240.0000    total number of electrons
   NUPDOWN=      -1.0000    fix difference up-down

 DOS related values:
   EMIN   =  10.00;   EMAX   =-10.00  energy-range for DOS
   EFERMI =   0.00
   ISMEAR =     0;   SIGMA  =   0.01  broadening in eV -4-tet -1-fermi 0-gaus

 Electronic relaxation 2 (details)
   IALGO  =     38    algorithm
   LDIAG  =      T    sub-space diagonalisation (order eigenvalues)
   LSUBROT=      F    optimize rotation matrix (better conditioning)
   TURBO    =      0    0=normal 1=particle mesh
   IRESTART =      0    0=no restart 2=restart with 2 vectors
   NREBOOT  =      0    no. of reboots
   NMIN     =      0    reboot dimension
   EREF     =   0.00    reference energy to select bands
   IMIX   =      4    mixing-type and parameters
     AMIX     =   0.40;   BMIX     =  1.00
     AMIX_MAG =   1.60;   BMIX_MAG =  1.00
     AMIN     =   0.10
     WC   =   100.;   INIMIX=   1;  MIXPRE=   1;  MAXMIX= -45

 Intra band minimization:
   WEIMIN = 0.0010     energy-eigenvalue tresh-hold
   EBREAK =  0.16E-08  absolut break condition
   DEPER  =   0.30     relativ break condition  

   TIME   =   0.40     timestep for ELM

  volume/ion in A,a.u.               =      14.78        99.74
  Fermi-wavevector in a.u.,A,eV,Ry     =   1.305771  2.467550 23.198463  1.705039
  Thomas-Fermi vector in A             =   2.436618
 
 Write flags
   LWAVE        =      T    write WAVECAR
   LDOWNSAMPLE  =      F    k-point downsampling of WAVECAR
   LCHARG       =      T    write CHGCAR
   LVTOT        =      F    write LOCPOT, total local potential
   LVHAR        =      F    write LOCPOT, Hartree potential only
   LELF         =      F    write electronic localiz. function (ELF)
   LORBIT       =     11    0 simple, 1 ext, 2 COOP (PROOUT), +10 PAW based schemes


 Dipole corrections
   LMONO  =      F    monopole corrections only (constant potential shift)
   LDIPOL =      F    correct potential (dipole corrections)
   IDIPOL =      0    1-x, 2-y, 3-z, 4-all directions 
   EPSILON=  1.0000000 bulk dielectric constant

 LDA+U is selected, type is set to LDAUTYPE =  2
   angular momentum for each species LDAUL =     2   -1   -1
   U (eV)           for each species LDAUU =   4.2  0.0  0.0
   J (eV)           for each species LDAUJ =   0.0  0.0  0.0
 Exchange correlation treatment:
   GGA     =    PS    GGA type
   LEXCH   =    14    internal setting for exchange type
   VOSKOWN=      0    Vosko Wilk Nusair interpolation
   LHFCALC =     F    Hartree Fock is set to
   LHFONE  =     F    Hartree Fock one center treatment
   AEXX    =    0.0000 exact exchange contribution

 Linear response parameters
   LEPSILON=     F    determine dielectric tensor
   LRPA    =     F    only Hartree local field effects (RPA)
   LNABLA  =     F    use nabla operator in PAW spheres
   LVEL    =     F    velocity operator in full k-point grid
   LINTERFAST=   F  fast interpolation
   KINTER  =     0    interpolate to denser k-point grid
   CSHIFT  =0.1000    complex shift for real part using Kramers Kronig
   OMEGAMAX=  -1.0    maximum frequency
   DEG_THRESHOLD= 0.2000000E-02 threshold for treating states as degnerate
   RTIME   =   -0.100 relaxation time in fs
  (WPLASMAI=    0.000 imaginary part of plasma frequency in eV, 0.658/RTIME)
   DFIELD  = 0.0000000 0.0000000 0.0000000 field for delta impulse in time
 
 Orbital magnetization related:
   ORBITALMAG=     F  switch on orbital magnetization
   LCHIMAG   =     F  perturbation theory with respect to B field
   DQ        =  0.001000  dq finite difference perturbation B field
   LLRAUG    =     F  two centre corrections for induced B field



--------------------------------------------------------------------------------------------------------


 quasi-Newton-method for relaxation of ions
 charge density and potential will be updated during run
 spin polarized calculation
 Variant of blocked Davidson
 Davidson routine will perform the subspace rotation
 perform sub-space diagonalisation
    after iterative eigenvector-optimisation
 modified Broyden-mixing scheme, WC =      100.0
 initial mixing is a Kerker type mixing with AMIX =  0.4000 and BMIX =      1.0000
 Hartree-type preconditioning will be used
 using additional bands           40
 real space projection scheme for non local part
 use partial core corrections
 calculate Harris-corrections to forces 
   (improved forces if not selfconsistent)
 use gradient corrections 
 use of overlap-Matrix (Vanderbilt PP)
 Gauss-broadening in eV      SIGMA  =   0.01


--------------------------------------------------------------------------------------------------------


  energy-cutoff  :      700.00
  volume of cell :      472.97
      direct lattice vectors                 reciprocal lattice vectors
     7.885851266  0.000201705 -0.000020782     0.126809392 -0.000003280  0.000000300
     0.000201608  7.795255746 -0.000054334    -0.000003281  0.128283155  0.000000915
    -0.000018198 -0.000054862  7.694055862     0.000000342  0.000000906  0.129970463

  length of vectors
     7.885851268  7.795255749  7.694055863     0.126809392  0.128283155  0.129970463


 
 old parameters found on file WAVECAR:
  energy-cutoff  :      700.00
  volume of cell :      438.28
      direct lattice vectors                 reciprocal lattice vectors
     7.596000000  0.000000000  0.000000000     0.131648236  0.000000000  0.000000000
     0.000000000  7.596000000  0.000000000     0.000000000  0.131648236  0.000000000
     0.000000000  0.000000000  7.596000000     0.000000000  0.000000000  0.131648236

  length of vectors

 
 k-points in units of 2pi/SCALE and weight: Title                                   
   0.03170161  0.03207020  0.03249292       0.250
  -0.03170308  0.03207184  0.03249277       0.250
   0.03170325 -0.03207138  0.03249246       0.250
  -0.03170144 -0.03206974  0.03249231       0.250
 
 k-points in reciprocal lattice and weights: Title                                   
   0.25000000  0.25000000  0.25000000       0.250
  -0.25000000  0.25000000  0.25000000       0.250
   0.25000000 -0.25000000  0.25000000       0.250
  -0.25000000 -0.25000000  0.25000000       0.250
 
 position of ions in fractional coordinates (direct lattice) 
   0.00005148  0.00034216  0.99999965
   0.00103732  0.99998724  0.49999966
   0.00112240  0.49986601  0.99999952
   0.97854234  0.49999566  0.50000000
   0.50009005  0.98806051  0.00000098
   0.50046059  0.99976304  0.50000123
   0.50024499  0.51056347  0.00000176
   0.49969324  0.50023896  0.50000069
   0.76037280  0.50000043  0.50000137
   0.49934824  0.24751643  0.50000341
   0.50028717  0.75109703  0.99999666
   0.49938209  0.75238742  0.50000091
   0.50029954  0.99870163  0.25055197
   0.50029708  0.99869650  0.74944945
   0.49936465  0.50148795  0.24864732
   0.49936863  0.50148046  0.75135002
   0.24449221  0.00307514  0.00000307
   0.23737412  0.99992841  0.49999978
   0.24603484  0.49709022  0.99999365
   0.23733956  0.50004409  0.49999703
   0.75560908  0.00306726  0.99999775
   0.76422177  0.99991560  0.49999935
   0.75583868  0.49725899  0.00000649
   0.99955561  0.24941535  0.99999961
   0.00256628  0.24399164  0.50000039
   0.99948138  0.75081137  0.99999996
   0.00256112  0.75599964  0.49999974
   0.50032833  0.24898827  0.99999992
   0.99996685  0.99986761  0.25768990
   0.99996711  0.99987712  0.74230941
   0.00734522  0.50023854  0.25476214
   0.00735525  0.50024585  0.74523719
 
 position of ions in cartesian coordinates  (Angst):
   0.00038783  0.00261234  7.69405314
   0.00837263  7.79512902  3.84697095
   0.00893368  3.89652878  7.69402496
   7.71673107  3.89776402  3.84698044
   3.94383496  7.70228522 -0.00005653
   3.94675026  7.79348209  3.84697269
   3.94496053  3.98007376 -0.00002456
   3.94059831  3.89956397  3.84699568
   5.99627848  3.89775720  3.84699548
   3.93782673  1.92952716  3.84703033
   3.94532342  5.85503949  7.69397896
   3.93819550  5.86512564  3.84698367
   3.94548455  7.78522183  1.92769621
   3.94545606  7.78515441  5.76624130
   3.93801192  3.90931389  1.91306876
   3.93803416  3.90922797  5.78089137
   1.92802983  0.02402080  0.00001838
   1.87208947  7.79471816  3.84696700
   1.94027614  3.87494019  7.69397491
   1.87171619  3.89799202  3.84697298
   5.95860326  0.02400761  7.69402266
   6.02673168  7.79472457  3.84695271
   5.96053169  3.87641348  0.00000721
   7.88237898  1.94440322  7.69401856
   0.02027740  1.90195031  3.84701760
   7.88189466  5.85291335  7.69399402
   0.02033995  5.89318359  3.84698481
   3.94554678  1.94097327  7.69403131
   7.88578673  7.79441129  1.98260541
   7.88577995  7.79445880  5.71129496
   0.05801950  3.89947484  1.96012681
   0.05808968  3.89950493  5.73386925
 


--------------------------------------------------------------------------------------------------------


 k-point  1 :   0.2500 0.2500 0.2500  plane waves:   19893
 k-point  2 :  -0.2500 0.2500 0.2500  plane waves:   19892
 k-point  3 :   0.2500-0.2500 0.2500  plane waves:   19892
 k-point  4 :  -0.2500-0.2500 0.2500  plane waves:   19893

 maximum and minimum number of plane-waves per node :      2508     2467

 maximum number of plane-waves:     19893
 maximum index in each direction: 
   IXMAX=   17   IYMAX=   17   IZMAX=   16
   IXMIN=  -17   IYMIN=  -17   IZMIN=  -16


 real space projection operators:
  total allocation   :      18110.17 KBytes
  max/ min on nodes  :       2412.12       1879.50


 parallel 3D FFT for wavefunctions:
    minimum data exchange during FFTs selected (reduces bandwidth)
 parallel 3D FFT for charge:
    minimum data exchange during FFTs selected (reduces bandwidth)


 total amount of memory used by VASP MPI-rank0    62210. kBytes
=======================================================================

   base      :      30000. kBytes
   nonlr-proj:       8388. kBytes
   fftplans  :       8423. kBytes
   grid      :       8783. kBytes
   one-center:        124. kBytes
   wavefun   :       6492. kBytes
 
     INWAV:  cpu time    3.8594: real time    5.5875
 Broyden mixing: mesh for mixing (old mesh)
   NGX = 35   NGY = 33   NGZ = 33
  (NGX  =140   NGY  =140   NGZ  =140)
  gives a total of  38115 points

 charge density for first step will be calculated from the start-wavefunctions


--------------------------------------------------------------------------------------------------------


 Maximum index for non-local projection operator         1348
 Maximum index for augmentation-charges         7706 (set IRDMAX)


--------------------------------------------------------------------------------------------------------


 initial charge from wavefunction
 First call to EWALD:  gamma=   0.227
 Maximum number of real-space cells 3x 3x 3
 Maximum number of reciprocal cells 3x 3x 3

    FEWALD:  cpu time    0.0030: real time    0.0036


--------------------------------------- Iteration      1(   1)  ---------------------------------------


    POTLOK:  cpu time    0.1510: real time    1.3534
    SETDIJ:  cpu time    0.8279: real time    0.8343
     EDDAV:  cpu time    3.6524: real time    3.6682
       DOS:  cpu time    0.0010: real time    0.0011
    CHARGE:  cpu time    0.3649: real time    0.3754
    MIXING:  cpu time    0.0090: real time    0.0100
    --------------------------------------------
      LOOP:  cpu time    5.0062: real time    6.2425

 eigenvalue-minimisations  :  2560
 total energy-change (2. order) :-0.2073992E+03  (-0.9896166E-01)
 number of electron     240.0000003 magnetization       1.9164025
 augmentation part       62.1286840 magnetization       1.0879447

 Broyden mixing:
  rms(total) = 0.99920E-01    rms(broyden)= 0.99854E-01
  rms(prec ) = 0.14983E+00
  weight for this iteration     100.00

 Free energy of the ion-electron system (eV)
  ---------------------------------------------------
  alpha Z        PSCENC =       740.35466848
  Ewald energy   TEWEN  =    -12616.09369935
  -Hartree energ DENC   =     -8383.58769910
  -exchange      EXHF   =         0.00000000
  -V(xc)+E(xc)   XCENC  =      1118.99978831
  PAW double counting   =     17964.74031849   -18083.59247689
  entropy T*S    EENTRO =        -0.00000124
  eigenvalues    EBANDS =     -3250.57327144
  atomic energy  EATOM  =     22302.35321627
  Solvation  Ediel_sol  =         0.00000000
  ---------------------------------------------------
  free energy    TOTEN  =      -207.39915648 eV

  energy without entropy =     -207.39915524  energy(sigma->0) =     -207.39915586


--------------------------------------------------------------------------------------------------------




--------------------------------------- Iteration      1(   2)  ---------------------------------------


    POTLOK:  cpu time    0.1390: real time    0.2171
    SETDIJ:  cpu time    0.8289: real time    0.8354
     EDDAV:  cpu time    4.5323: real time    4.5835
       DOS:  cpu time    0.0020: real time    0.0013
    CHARGE:  cpu time    0.3639: real time    0.3754
    MIXING:  cpu time    0.0090: real time    0.0099
    --------------------------------------------
      LOOP:  cpu time    5.8751: real time    6.0227

 eigenvalue-minimisations  :  3520
 total energy-change (2. order) : 0.6921426E-02  (-0.5296062E-02)
 number of electron     240.0000003 magnetization       1.8138436
 augmentation part       61.9574873 magnetization       1.4726226

 Broyden mixing:
  rms(total) = 0.35478E+00    rms(broyden)= 0.35474E+00
  rms(prec ) = 0.50066E+00
  weight for this iteration     100.00

 eigenvalues of (default mixing * dielectric matrix)
  average eigenvalue GAMMA=   0.2101
  0.2101

 Free energy of the ion-electron system (eV)
  ---------------------------------------------------
  alpha Z        PSCENC =       740.35466848
  Ewald energy   TEWEN  =    -12616.09369935
  -Hartree energ DENC   =     -8384.94742980
  -exchange      EXHF   =         0.00000000
  -V(xc)+E(xc)   XCENC  =      1119.04867517
  PAW double counting   =     17968.93675364   -18087.34531723
  entropy T*S    EENTRO =        -0.00548015
  eigenvalues    EBANDS =     -3249.69362209
  atomic energy  EATOM  =     22302.35321627
  Solvation  Ediel_sol  =         0.00000000
  ---------------------------------------------------
  free energy    TOTEN  =      -207.39223505 eV

  energy without entropy =     -207.38675491  energy(sigma->0) =     -207.38949498


--------------------------------------------------------------------------------------------------------




--------------------------------------- Iteration      1(   3)  ---------------------------------------


    POTLOK:  cpu time    0.1510: real time    0.1666
    SETDIJ:  cpu time    0.8389: real time    0.8373
     EDDAV:  cpu time    4.8173: real time    4.8164
       DOS:  cpu time    0.0020: real time    0.0016
    CHARGE:  cpu time    0.3799: real time    0.3771
    MIXING:  cpu time    0.0030: real time    0.0026
    --------------------------------------------
      LOOP:  cpu time    6.1921: real time    6.2016

 eigenvalue-minimisations  :  3584
 total energy-change (2. order) :-0.4948693E-02  (-0.3189249E-02)
 number of electron     240.0000003 magnetization       1.7910661
 augmentation part       61.9548965 magnetization       1.5154509

 Broyden mixing:
  rms(total) = 0.31877E+00    rms(broyden)= 0.31876E+00
  rms(prec ) = 0.46862E+00
  weight for this iteration     100.00

 eigenvalues of (default mixing * dielectric matrix)
  average eigenvalue GAMMA=   0.1870
  0.1870  0.1870

 Free energy of the ion-electron system (eV)
  ---------------------------------------------------
  alpha Z        PSCENC =       740.35466848
  Ewald energy   TEWEN  =    -12616.09369935
  -Hartree energ DENC   =     -8384.05497170
  -exchange      EXHF   =         0.00000000
  -V(xc)+E(xc)   XCENC  =      1119.01596678
  PAW double counting   =     17967.01555507   -18085.80112047
  entropy T*S    EENTRO =        -0.00568049
  eigenvalues    EBANDS =     -3250.18111832
  atomic energy  EATOM  =     22302.35321627
  Solvation  Ediel_sol  =         0.00000000
  ---------------------------------------------------
  free energy    TOTEN  =      -207.39718375 eV

  energy without entropy =     -207.39150325  energy(sigma->0) =     -207.39434350


--------------------------------------------------------------------------------------------------------




--------------------------------------- Iteration      1(   4)  ---------------------------------------


    POTLOK:  cpu time    0.1420: real time    0.1617
    SETDIJ:  cpu time    0.8379: real time    0.8367
     EDDAV:  cpu time    4.1964: real time    4.1936
       DOS:  cpu time    0.0010: real time    0.0016
    CHARGE:  cpu time    0.3769: real time    0.3751
    MIXING:  cpu time    0.0030: real time    0.0024
    --------------------------------------------
      LOOP:  cpu time    5.5572: real time    5.5711

 eigenvalue-minimisations  :  3104
 total energy-change (2. order) : 0.2886043E-02  (-0.4910003E-03)
 number of electron     240.0000003 magnetization       1.7882240
 augmentation part       62.0908627 magnetization       1.0750462

 Broyden mixing:
  rms(total) = 0.10554E-01    rms(broyden)= 0.97704E-02
  rms(prec ) = 0.13465E-01
  weight for this iteration     100.00

 eigenvalues of (default mixing * dielectric matrix)
  average eigenvalue GAMMA=   0.3421
  0.6459  0.1902  0.1902

 Free energy of the ion-electron system (eV)
  ---------------------------------------------------
  alpha Z        PSCENC =       740.35466848
  Ewald energy   TEWEN  =    -12616.09369935
  -Hartree energ DENC   =     -8383.75711620
  -exchange      EXHF   =         0.00000000
  -V(xc)+E(xc)   XCENC  =      1119.00112750
  PAW double counting   =     17966.46217104   -18085.27314074
  entropy T*S    EENTRO =        -0.00242252
  eigenvalues    EBANDS =     -3250.43910218
  atomic energy  EATOM  =     22302.35321627
  Solvation  Ediel_sol  =         0.00000000
  ---------------------------------------------------
  free energy    TOTEN  =      -207.39429770 eV

  energy without entropy =     -207.39187518  energy(sigma->0) =     -207.39308644


--------------------------------------------------------------------------------------------------------




--------------------------------------- Iteration      1(   5)  ---------------------------------------


    POTLOK:  cpu time    0.1440: real time    0.1617
    SETDIJ:  cpu time    0.8399: real time    0.8380
     EDDAV:  cpu time    4.0364: real time    4.0350
       DOS:  cpu time    0.0020: real time    0.0014
    CHARGE:  cpu time    0.3809: real time    0.3780
    MIXING:  cpu time    0.0020: real time    0.0026
    --------------------------------------------
      LOOP:  cpu time    5.4052: real time    5.4168

 eigenvalue-minimisations  :  2944
 total energy-change (2. order) :-0.1615026E-02  (-0.5691945E-04)
 number of electron     240.0000003 magnetization       1.7929763
 augmentation part       62.1163055 magnetization       0.9969857

 Broyden mixing:
  rms(total) = 0.68120E-01    rms(broyden)= 0.68100E-01
  rms(prec ) = 0.10116E+00
  weight for this iteration     100.00

 eigenvalues of (default mixing * dielectric matrix)
  average eigenvalue GAMMA=   0.6520
  1.7286  0.4985  0.1905  0.1905

 Free energy of the ion-electron system (eV)
  ---------------------------------------------------
  alpha Z        PSCENC =       740.35466848
  Ewald energy   TEWEN  =    -12616.09369935
  -Hartree energ DENC   =     -8383.74955594
  -exchange      EXHF   =         0.00000000
  -V(xc)+E(xc)   XCENC  =      1119.00060157
  PAW double counting   =     17966.87755665   -18085.67207537
  entropy T*S    EENTRO =        -0.00089082
  eigenvalues    EBANDS =     -3250.46573421
  atomic energy  EATOM  =     22302.35321627
  Solvation  Ediel_sol  =         0.00000000
  ---------------------------------------------------
  free energy    TOTEN  =      -207.39591273 eV

  energy without entropy =     -207.39502191  energy(sigma->0) =     -207.39546732


--------------------------------------------------------------------------------------------------------




--------------------------------------- Iteration      1(   6)  ---------------------------------------


    POTLOK:  cpu time    0.1490: real time    0.1612
    SETDIJ:  cpu time    0.8359: real time    0.8349
     EDDAV:  cpu time    4.2084: real time    4.2059
       DOS:  cpu time    0.0020: real time    0.0012
    CHARGE:  cpu time    0.4129: real time    0.4111
    MIXING:  cpu time    0.0020: real time    0.0024
    --------------------------------------------
      LOOP:  cpu time    5.6101: real time    5.6167

 eigenvalue-minimisations  :  3056
 total energy-change (2. order) : 0.3459475E-03  (-0.1342974E-04)
 number of electron     240.0000003 magnetization       1.7944530
 augmentation part       62.0940820 magnetization       1.0708265

 Broyden mixing:
  rms(total) = 0.14065E-01    rms(broyden)= 0.14060E-01
  rms(prec ) = 0.21496E-01
  weight for this iteration     100.00

 eigenvalues of (default mixing * dielectric matrix)
  average eigenvalue GAMMA=   0.7010
  2.1126  0.1900  0.1900  0.5063  0.5063

 Free energy of the ion-electron system (eV)
  ---------------------------------------------------
  alpha Z        PSCENC =       740.35466848
  Ewald energy   TEWEN  =    -12616.09369935
  -Hartree energ DENC   =     -8383.87339336
  -exchange      EXHF   =         0.00000000
  -V(xc)+E(xc)   XCENC  =      1119.00715912
  PAW double counting   =     17967.51140062   -18086.29614615
  entropy T*S    EENTRO =        -0.00225547
  eigenvalues    EBANDS =     -3250.35651693
  atomic energy  EATOM  =     22302.35321627
  Solvation  Ediel_sol  =         0.00000000
  ---------------------------------------------------
  free energy    TOTEN  =      -207.39556678 eV

  energy without entropy =     -207.39331131  energy(sigma->0) =     -207.39443905


--------------------------------------------------------------------------------------------------------




--------------------------------------- Iteration      1(   7)  ---------------------------------------


    POTLOK:  cpu time    0.1380: real time    0.1717
    SETDIJ:  cpu time    0.8319: real time    0.8385
     EDDAV:  cpu time    4.4933: real time    4.5459
       DOS:  cpu time    0.0010: real time    0.0013
    CHARGE:  cpu time    0.3659: real time    0.3772
    MIXING:  cpu time    0.0020: real time    0.0024
    --------------------------------------------
      LOOP:  cpu time    5.8321: real time    5.9369

 eigenvalue-minimisations  :  3376
 total energy-change (2. order) :-0.1995897E-03  (-0.7170928E-05)
 number of electron     240.0000003 magnetization       1.7906834
 augmentation part       62.0601161 magnetization       1.1767602

 Broyden mixing:
  rms(total) = 0.65502E-01    rms(broyden)= 0.65491E-01
  rms(prec ) = 0.96219E-01
  weight for this iteration     100.00

 eigenvalues of (default mixing * dielectric matrix)
  average eigenvalue GAMMA=   0.6527
  2.1286  0.6061  0.1905  0.1905  0.4004  0.4004

 Free energy of the ion-electron system (eV)
  ---------------------------------------------------
  alpha Z        PSCENC =       740.35466848
  Ewald energy   TEWEN  =    -12616.09369935
  -Hartree energ DENC   =     -8383.92278356
  -exchange      EXHF   =         0.00000000
  -V(xc)+E(xc)   XCENC  =      1119.00847699
  PAW double counting   =     17967.81737198   -18086.59663126
  entropy T*S    EENTRO =        -0.00370283
  eigenvalues    EBANDS =     -3250.31268309
  atomic energy  EATOM  =     22302.35321627
  Solvation  Ediel_sol  =         0.00000000
  ---------------------------------------------------
  free energy    TOTEN  =      -207.39576637 eV

  energy without entropy =     -207.39206354  energy(sigma->0) =     -207.39391496


--------------------------------------------------------------------------------------------------------




--------------------------------------- Iteration      1(   8)  ---------------------------------------


    POTLOK:  cpu time    0.1370: real time    0.1605
    SETDIJ:  cpu time    0.8379: real time    0.8360
     EDDAV:  cpu time    4.1504: real time    4.1487
       DOS:  cpu time    0.0020: real time    0.0014
    CHARGE:  cpu time    0.3909: real time    0.3881
    MIXING:  cpu time    0.0080: real time    0.0080
    --------------------------------------------
      LOOP:  cpu time    5.5262: real time    5.5427

 eigenvalue-minimisations  :  3040
 total energy-change (2. order) : 0.1398995E-03  (-0.4141134E-05)
 number of electron     240.0000003 magnetization       1.7880428
 augmentation part       62.0731849 magnetization       1.1325242

 Broyden mixing:
  rms(total) = 0.34324E-01    rms(broyden)= 0.34324E-01
  rms(prec ) = 0.50563E-01
  weight for this iteration     100.00

 eigenvalues of (default mixing * dielectric matrix)
  average eigenvalue GAMMA=   0.7222
  2.2831  0.7742  0.5979  0.5979  0.1905  0.1905  0.4211

 Free energy of the ion-electron system (eV)
  ---------------------------------------------------
  alpha Z        PSCENC =       740.35466848
  Ewald energy   TEWEN  =    -12616.09369935
  -Hartree energ DENC   =     -8383.86751512
  -exchange      EXHF   =         0.00000000
  -V(xc)+E(xc)   XCENC  =      1119.00563159
  PAW double counting   =     17967.72394095   -18086.50723430
  entropy T*S    EENTRO =        -0.00321703
  eigenvalues    EBANDS =     -3250.36141795
  atomic energy  EATOM  =     22302.35321627
  Solvation  Ediel_sol  =         0.00000000
  ---------------------------------------------------
  free energy    TOTEN  =      -207.39562647 eV

  energy without entropy =     -207.39240944  energy(sigma->0) =     -207.39401796


--------------------------------------------------------------------------------------------------------




--------------------------------------- Iteration      1(   9)  ---------------------------------------


    POTLOK:  cpu time    0.1560: real time    0.1758
    SETDIJ:  cpu time    0.8389: real time    0.8364
     EDDAV:  cpu time    4.4633: real time    4.4622
       DOS:  cpu time    0.0010: real time    0.0012
    CHARGE:  cpu time    0.3799: real time    0.3774
    MIXING:  cpu time    0.0030: real time    0.0030
    --------------------------------------------
      LOOP:  cpu time    5.8421: real time    5.8561

 eigenvalue-minimisations  :  3360
 total energy-change (2. order) : 0.3797696E-04  (-0.2094834E-05)
 number of electron     240.0000003 magnetization       1.7883932
 augmentation part       62.0879151 magnetization       1.0861396

 Broyden mixing:
  rms(total) = 0.82137E-03    rms(broyden)= 0.65145E-03
  rms(prec ) = 0.96924E-03
  weight for this iteration     100.00
  WARNING: grid for Broyden might be to small

 eigenvalues of (default mixing * dielectric matrix)
  average eigenvalue GAMMA=   0.7389
  2.4305  0.1905  0.1905  0.7951  0.6558  0.6558  0.5970  0.3958

 Free energy of the ion-electron system (eV)
  ---------------------------------------------------
  alpha Z        PSCENC =       740.35466848
  Ewald energy   TEWEN  =    -12616.09369935
  -Hartree energ DENC   =     -8383.82843043
  -exchange      EXHF   =         0.00000000
  -V(xc)+E(xc)   XCENC  =      1119.00403684
  PAW double counting   =     17967.64248242   -18086.42875908
  entropy T*S    EENTRO =        -0.00258115
  eigenvalues    EBANDS =     -3250.39652250
  atomic energy  EATOM  =     22302.35321627
  Solvation  Ediel_sol  =         0.00000000
  ---------------------------------------------------
  free energy    TOTEN  =      -207.39558850 eV

  energy without entropy =     -207.39300735  energy(sigma->0) =     -207.39429792


--------------------------------------------------------------------------------------------------------




--------------------------------------- Iteration      1(  10)  ---------------------------------------


    POTLOK:  cpu time    0.9868: real time    1.0430
    SETDIJ:  cpu time    0.8359: real time    0.8356
     EDDAV:  cpu time    3.7144: real time    3.7120
       DOS:  cpu time    0.0020: real time    0.0013
    CHARGE:  cpu time    0.3769: real time    0.3752
    MIXING:  cpu time    0.0030: real time    0.0030
    --------------------------------------------
      LOOP:  cpu time    5.9191: real time    5.9702

 eigenvalue-minimisations  :  2608
 total energy-change (2. order) :-0.2293323E-04  (-0.7837250E-06)
 number of electron     240.0000003 magnetization       1.7878946
 augmentation part       62.0847122 magnetization       1.0957529

 Broyden mixing:
  rms(total) = 0.70543E-02    rms(broyden)= 0.70543E-02
  rms(prec ) = 0.10365E-01
  weight for this iteration     100.00

 eigenvalues of (default mixing * dielectric matrix)
  average eigenvalue GAMMA=   0.7482
  2.4621  0.9208  0.9208  0.1905  0.1905  0.5913  0.5913  0.4960  0.3704

 Free energy of the ion-electron system (eV)
  ---------------------------------------------------
  alpha Z        PSCENC =       740.35466848
  Ewald energy   TEWEN  =    -12616.09369935
  -Hartree energ DENC   =     -8383.83812619
  -exchange      EXHF   =         0.00000000
  -V(xc)+E(xc)   XCENC  =      1119.00437071
  PAW double counting   =     17967.66457111   -18086.44985219
  entropy T*S    EENTRO =        -0.00272782
  eigenvalues    EBANDS =     -3250.38803245
  atomic energy  EATOM  =     22302.35321627
  Solvation  Ediel_sol  =         0.00000000
  ---------------------------------------------------
  free energy    TOTEN  =      -207.39561143 eV

  energy without entropy =     -207.39288361  energy(sigma->0) =     -207.39424752


--------------------------------------------------------------------------------------------------------




--------------------------------------- Iteration      1(  11)  ---------------------------------------


    POTLOK:  cpu time    0.1450: real time    1.0096
    SETDIJ:  cpu time    0.8369: real time    0.8353
     EDDAV:  cpu time    2.7846: real time    2.7834
       DOS:  cpu time    0.0020: real time    0.0015
    CHARGE:  cpu time    0.3789: real time    0.3768
    MIXING:  cpu time    0.0030: real time    0.0030
    --------------------------------------------
      LOOP:  cpu time    4.1504: real time    5.0096

 eigenvalue-minimisations  :  1696
 total energy-change (2. order) : 0.1669592E-05  (-0.6828035E-07)
 number of electron     240.0000003 magnetization       1.7877135
 augmentation part       62.0863968 magnetization       1.0901651

 Broyden mixing:
  rms(total) = 0.29843E-02    rms(broyden)= 0.29839E-02
  rms(prec ) = 0.44053E-02
  weight for this iteration     100.00

 eigenvalues of (default mixing * dielectric matrix)
  average eigenvalue GAMMA=   0.8274
  2.4624  1.7947  0.8002  0.8002  0.1905  0.1905  0.5847  0.5847  0.4971  0.3690

 Free energy of the ion-electron system (eV)
  ---------------------------------------------------
  alpha Z        PSCENC =       740.35466848
  Ewald energy   TEWEN  =    -12616.09369935
  -Hartree energ DENC   =     -8383.83044315
  -exchange      EXHF   =         0.00000000
  -V(xc)+E(xc)   XCENC  =      1119.00401074
  PAW double counting   =     17967.61963754   -18086.40586373
  entropy T*S    EENTRO =        -0.00264984
  eigenvalues    EBANDS =     -3250.39448671
  atomic energy  EATOM  =     22302.35321627
  Solvation  Ediel_sol  =         0.00000000
  ---------------------------------------------------
  free energy    TOTEN  =      -207.39560976 eV

  energy without entropy =     -207.39295992  energy(sigma->0) =     -207.39428484


--------------------------------------------------------------------------------------------------------




--------------------------------------- Iteration      1(  12)  ---------------------------------------


    POTLOK:  cpu time    0.2320: real time    0.2521
    SETDIJ:  cpu time    0.9099: real time    0.9081
     EDDAV:  cpu time    2.4026: real time    2.4021
       DOS:  cpu time    0.0010: real time    0.0015
    --------------------------------------------
      LOOP:  cpu time    3.5455: real time    3.5638

 eigenvalue-minimisations  :  1304
 total energy-change (2. order) :-0.2665984E-06  (-0.3654437E-07)
 number of electron     240.0000003 magnetization       1.7877135
 augmentation part       62.0863968 magnetization       1.0901651

 Free energy of the ion-electron system (eV)
  ---------------------------------------------------
  alpha Z        PSCENC =       740.35466848
  Ewald energy   TEWEN  =    -12616.09369935
  -Hartree energ DENC   =     -8383.82641488
  -exchange      EXHF   =         0.00000000
  -V(xc)+E(xc)   XCENC  =      1119.00383516
  PAW double counting   =     17967.58033403   -18086.36720492
  entropy T*S    EENTRO =        -0.00259051
  eigenvalues    EBANDS =     -3250.39775430
  atomic energy  EATOM  =     22302.35321627
  Solvation  Ediel_sol  =         0.00000000
  ---------------------------------------------------
  free energy    TOTEN  =      -207.39561003 eV

  energy without entropy =     -207.39301952  energy(sigma->0) =     -207.39431477


--------------------------------------------------------------------------------------------------------




 average (electrostatic) potential at core
  the test charge radii are     1.0397  0.7215  0.7167
  (the norm of the test charge is              1.0000)
       1 -58.0604       2 -60.8208       3 -57.7940       4 -58.9537       5 -58.4355
       6 -58.0633       7 -58.3001       8 -57.8986       9 -74.1675      10 -73.6825
      11 -74.0625      12 -73.6951      13 -73.5183      14 -73.5183      15 -73.3204
      16 -73.3204      17 -79.5088      18 -80.0852      19 -79.2402      20 -78.1632
      21 -79.5044      22 -80.0721      23 -79.2561      24 -79.4241      25 -80.3985
      26 -79.4491      27 -80.3969      28 -78.3219      29 -80.6290      30 -80.6291
      31 -79.7578      32 -79.7578
 
 
 
 E-fermi :   0.3127     XC(G=0):  -8.8652     alpha+bet : -7.4710


 spin component 1

 k-point     1 :       0.2500    0.2500    0.2500
  band No.  band energies     occupation 
      1     -36.8302      1.00000
      2     -36.7599      1.00000
      3     -36.7440      1.00000
      4     -35.0969      1.00000
      5     -35.0767      1.00000
      6     -34.9280      1.00000
      7     -34.7533      1.00000
      8     -34.6474      1.00000
      9     -34.4925      1.00000
     10     -34.4810      1.00000
     11     -34.3985      1.00000
     12     -34.3387      1.00000
     13     -34.3157      1.00000
     14     -34.1960      1.00000
     15     -34.1674      1.00000
     16     -34.1652      1.00000
     17     -34.1394      1.00000
     18     -34.1052      1.00000
     19     -33.9478      1.00000
     20     -33.8269      1.00000
     21     -33.8258      1.00000
     22     -33.8218      1.00000
     23     -33.6760      1.00000
     24     -33.6333      1.00000
     25     -24.5333      1.00000
     26     -24.2026      1.00000
     27     -24.0172      1.00000
     28     -23.8664      1.00000
     29     -23.8185      1.00000
     30     -23.6177      1.00000
     31     -23.4489      1.00000
     32     -23.3700      1.00000
     33     -23.2479      1.00000
     34     -23.1732      1.00000
     35     -23.0246      1.00000
     36     -22.9643      1.00000
     37     -22.9134      1.00000
     38     -22.7113      1.00000
     39     -21.9471      1.00000
     40     -21.8148      1.00000
     41     -16.5457      1.00000
     42     -16.4364      1.00000
     43     -16.2992      1.00000
     44     -16.0524      1.00000
     45     -15.8480      1.00000
     46     -15.6147      1.00000
     47     -15.5120      1.00000
     48     -15.3806      1.00000
     49      -8.0097      1.00000
     50      -7.7674      1.00000
     51      -7.3690      1.00000
     52      -7.0766      1.00000
     53      -6.7951      1.00000
     54      -6.7291      1.00000
     55      -6.6883      1.00000
     56      -6.6641      1.00000
     57      -6.6002      1.00000
     58      -6.4798      1.00000
     59      -6.4582      1.00000
     60      -6.2646      1.00000
     61      -6.2099      1.00000
     62      -6.0189      1.00000
     63      -5.8475      1.00000
     64      -5.7477      1.00000
     65      -5.7411      1.00000
     66      -5.6037      1.00000
     67      -5.5863      1.00000
     68      -5.5089      1.00000
     69      -5.4589      1.00000
     70      -5.4266      1.00000
     71      -5.2939      1.00000
     72      -5.2554      1.00000
     73      -5.1059      1.00000
     74      -5.0823      1.00000
     75      -4.9434      1.00000
     76      -4.8909      1.00000
     77      -4.8041      1.00000
     78      -4.7917      1.00000
     79      -4.6589      1.00000
     80      -4.6313      1.00000
     81      -4.5991      1.00000
     82      -4.4977      1.00000
     83      -4.4619      1.00000
     84      -4.4429      1.00000
     85      -4.3202      1.00000
     86      -4.2683      1.00000
     87      -4.1760      1.00000
     88      -4.1605      1.00000
     89      -4.0264      1.00000
     90      -3.9746      1.00000
     91      -3.9603      1.00000
     92      -3.8841      1.00000
     93      -3.8311      1.00000
     94      -3.7357      1.00000
     95      -3.7138      1.00000
     96      -3.6448      1.00000
     97      -3.2366      1.00000
     98      -3.2211      1.00000
     99      -3.2032      1.00000
    100      -3.0657      1.00000
    101      -3.0168      1.00000
    102      -2.8484      1.00000
    103      -2.4762      1.00000
    104      -2.3984      1.00000
    105      -2.2285      1.00000
    106      -2.0715      1.00000
    107      -1.9385      1.00000
    108      -1.8058      1.00000
    109      -1.6982      1.00000
    110      -1.4269      1.00000
    111      -1.3489      1.00000
    112      -1.2611      1.00000
    113      -1.1288      1.00000
    114      -0.9265      1.00000
    115      -0.7900      1.00000
    116      -0.7484      1.00000
    117      -0.5739      1.00000
    118      -0.5075      1.00000
    119      -0.4455      1.00000
    120      -0.3738      1.00000
    121       0.3039      0.89406
    122       0.3503      0.00000
    123       1.0577      0.00000
    124       1.2265      0.00000
    125       1.2340      0.00000
    126       2.4947      0.00000
    127       2.5061      0.00000
    128       2.5476      0.00000
    129       2.6784      0.00000
    130       2.7018      0.00000
    131       2.8233      0.00000
    132       2.8802      0.00000
    133       3.0134      0.00000
    134       3.0355      0.00000
    135       3.0528      0.00000
    136       3.2666      0.00000
    137       3.2846      0.00000
    138       3.3921      0.00000
    139       3.4629      0.00000
    140       3.7001      0.00000
    141       3.8724      0.00000
    142       3.9034      0.00000
    143       3.9191      0.00000
    144       4.0773      0.00000
    145       4.1753      0.00000
    146       4.2168      0.00000
    147       4.2714      0.00000
    148       4.3130      0.00000
    149       4.3929      0.00000
    150       4.5104      0.00000
    151       4.6448      0.00000
    152       4.6991      0.00000
    153       4.8058      0.00000
    154       5.2046      0.00000
    155       5.2751      0.00000
    156       5.7923      0.00000
    157       5.9289      0.00000
    158       6.1671      0.00000
    159       6.3172      0.00000
    160       6.5309      0.00000

 k-point     2 :      -0.2500    0.2500    0.2500
  band No.  band energies     occupation 
      1     -36.8302      1.00000
      2     -36.7599      1.00000
      3     -36.7440      1.00000
      4     -35.0969      1.00000
      5     -35.0767      1.00000
      6     -34.9280      1.00000
      7     -34.7533      1.00000
      8     -34.6474      1.00000
      9     -34.4925      1.00000
     10     -34.4810      1.00000
     11     -34.3985      1.00000
     12     -34.3387      1.00000
     13     -34.3157      1.00000
     14     -34.1960      1.00000
     15     -34.1674      1.00000
     16     -34.1652      1.00000
     17     -34.1394      1.00000
     18     -34.1052      1.00000
     19     -33.9478      1.00000
     20     -33.8269      1.00000
     21     -33.8258      1.00000
     22     -33.8218      1.00000
     23     -33.6760      1.00000
     24     -33.6333      1.00000
     25     -24.5333      1.00000
     26     -24.2026      1.00000
     27     -24.0172      1.00000
     28     -23.8664      1.00000
     29     -23.8185      1.00000
     30     -23.6177      1.00000
     31     -23.4489      1.00000
     32     -23.3700      1.00000
     33     -23.2479      1.00000
     34     -23.1732      1.00000
     35     -23.0246      1.00000
     36     -22.9642      1.00000
     37     -22.9135      1.00000
     38     -22.7113      1.00000
     39     -21.9471      1.00000
     40     -21.8148      1.00000
     41     -16.5457      1.00000
     42     -16.4364      1.00000
     43     -16.2992      1.00000
     44     -16.0524      1.00000
     45     -15.8480      1.00000
     46     -15.6147      1.00000
     47     -15.5120      1.00000
     48     -15.3806      1.00000
     49      -8.0097      1.00000
     50      -7.7674      1.00000
     51      -7.3690      1.00000
     52      -7.0766      1.00000
     53      -6.7952      1.00000
     54      -6.7291      1.00000
     55      -6.6881      1.00000
     56      -6.6642      1.00000
     57      -6.6003      1.00000
     58      -6.4798      1.00000
     59      -6.4580      1.00000
     60      -6.2646      1.00000
     61      -6.2100      1.00000
     62      -6.0190      1.00000
     63      -5.8473      1.00000
     64      -5.7474      1.00000
     65      -5.7413      1.00000
     66      -5.6060      1.00000
     67      -5.5843      1.00000
     68      -5.5087      1.00000
     69      -5.4592      1.00000
     70      -5.4261      1.00000
     71      -5.2938      1.00000
     72      -5.2561      1.00000
     73      -5.1056      1.00000
     74      -5.0820      1.00000
     75      -4.9433      1.00000
     76      -4.8908      1.00000
     77      -4.8019      1.00000
     78      -4.7942      1.00000
     79      -4.6578      1.00000
     80      -4.6273      1.00000
     81      -4.6060      1.00000
     82      -4.4963      1.00000
     83      -4.4628      1.00000
     84      -4.4423      1.00000
     85      -4.3208      1.00000
     86      -4.2681      1.00000
     87      -4.1766      1.00000
     88      -4.1604      1.00000
     89      -4.0264      1.00000
     90      -3.9766      1.00000
     91      -3.9609      1.00000
     92      -3.8841      1.00000
     93      -3.8254      1.00000
     94      -3.7356      1.00000
     95      -3.7153      1.00000
     96      -3.6465      1.00000
     97      -3.2434      1.00000
     98      -3.2163      1.00000
     99      -3.1998      1.00000
    100      -3.0628      1.00000
    101      -3.0179      1.00000
    102      -2.8519      1.00000
    103      -2.4782      1.00000
    104      -2.3958      1.00000
    105      -2.2259      1.00000
    106      -2.0697      1.00000
    107      -1.9380      1.00000
    108      -1.8059      1.00000
    109      -1.6987      1.00000
    110      -1.4285      1.00000
    111      -1.3488      1.00000
    112      -1.2746      1.00000
    113      -1.1210      1.00000
    114      -0.9262      1.00000
    115      -0.7896      1.00000
    116      -0.7465      1.00000
    117      -0.5722      1.00000
    118      -0.5074      1.00000
    119      -0.4455      1.00000
    120      -0.3738      1.00000
    121       0.3039      0.89380
    122       0.3504      0.00000
    123       1.0577      0.00000
    124       1.2257      0.00000
    125       1.2340      0.00000
    126       2.4919      0.00000
    127       2.5094      0.00000
    128       2.5471      0.00000
    129       2.6781      0.00000
    130       2.7018      0.00000
    131       2.8243      0.00000
    132       2.8795      0.00000
    133       3.0149      0.00000
    134       3.0349      0.00000
    135       3.0535      0.00000
    136       3.2636      0.00000
    137       3.2857      0.00000
    138       3.3920      0.00000
    139       3.4627      0.00000
    140       3.7016      0.00000
    141       3.8731      0.00000
    142       3.9017      0.00000
    143       3.9189      0.00000
    144       4.0777      0.00000
    145       4.1739      0.00000
    146       4.2212      0.00000
    147       4.2718      0.00000
    148       4.3089      0.00000
    149       4.3921      0.00000
    150       4.5190      0.00000
    151       4.6388      0.00000
    152       4.6994      0.00000
    153       4.8041      0.00000
    154       5.2002      0.00000
    155       5.2781      0.00000
    156       5.7992      0.00000
    157       5.9256      0.00000
    158       6.1663      0.00000
    159       6.3158      0.00000
    160       6.5320      0.00000

 k-point     3 :       0.2500   -0.2500    0.2500
  band No.  band energies     occupation 
      1     -36.8302      1.00000
      2     -36.7599      1.00000
      3     -36.7440      1.00000
      4     -35.0969      1.00000
      5     -35.0767      1.00000
      6     -34.9280      1.00000
      7     -34.7533      1.00000
      8     -34.6474      1.00000
      9     -34.4925      1.00000
     10     -34.4810      1.00000
     11     -34.3985      1.00000
     12     -34.3387      1.00000
     13     -34.3157      1.00000
     14     -34.1960      1.00000
     15     -34.1674      1.00000
     16     -34.1652      1.00000
     17     -34.1394      1.00000
     18     -34.1052      1.00000
     19     -33.9478      1.00000
     20     -33.8269      1.00000
     21     -33.8258      1.00000
     22     -33.8218      1.00000
     23     -33.6760      1.00000
     24     -33.6333      1.00000
     25     -24.5333      1.00000
     26     -24.2026      1.00000
     27     -24.0172      1.00000
     28     -23.8664      1.00000
     29     -23.8185      1.00000
     30     -23.6177      1.00000
     31     -23.4489      1.00000
     32     -23.3700      1.00000
     33     -23.2479      1.00000
     34     -23.1732      1.00000
     35     -23.0246      1.00000
     36     -22.9642      1.00000
     37     -22.9135      1.00000
     38     -22.7113      1.00000
     39     -21.9471      1.00000
     40     -21.8148      1.00000
     41     -16.5457      1.00000
     42     -16.4364      1.00000
     43     -16.2992      1.00000
     44     -16.0523      1.00000
     45     -15.8480      1.00000
     46     -15.6147      1.00000
     47     -15.5120      1.00000
     48     -15.3806      1.00000
     49      -8.0097      1.00000
     50      -7.7674      1.00000
     51      -7.3690      1.00000
     52      -7.0766      1.00000
     53      -6.7952      1.00000
     54      -6.7291      1.00000
     55      -6.6881      1.00000
     56      -6.6642      1.00000
     57      -6.6003      1.00000
     58      -6.4798      1.00000
     59      -6.4580      1.00000
     60      -6.2646      1.00000
     61      -6.2100      1.00000
     62      -6.0190      1.00000
     63      -5.8473      1.00000
     64      -5.7474      1.00000
     65      -5.7413      1.00000
     66      -5.6060      1.00000
     67      -5.5843      1.00000
     68      -5.5087      1.00000
     69      -5.4592      1.00000
     70      -5.4261      1.00000
     71      -5.2938      1.00000
     72      -5.2561      1.00000
     73      -5.1056      1.00000
     74      -5.0820      1.00000
     75      -4.9433      1.00000
     76      -4.8908      1.00000
     77      -4.8019      1.00000
     78      -4.7942      1.00000
     79      -4.6578      1.00000
     80      -4.6273      1.00000
     81      -4.6060      1.00000
     82      -4.4963      1.00000
     83      -4.4628      1.00000
     84      -4.4423      1.00000
     85      -4.3208      1.00000
     86      -4.2680      1.00000
     87      -4.1766      1.00000
     88      -4.1604      1.00000
     89      -4.0264      1.00000
     90      -3.9766      1.00000
     91      -3.9609      1.00000
     92      -3.8841      1.00000
     93      -3.8255      1.00000
     94      -3.7356      1.00000
     95      -3.7153      1.00000
     96      -3.6465      1.00000
     97      -3.2434      1.00000
     98      -3.2163      1.00000
     99      -3.1998      1.00000
    100      -3.0628      1.00000
    101      -3.0179      1.00000
    102      -2.8519      1.00000
    103      -2.4782      1.00000
    104      -2.3958      1.00000
    105      -2.2259      1.00000
    106      -2.0697      1.00000
    107      -1.9380      1.00000
    108      -1.8059      1.00000
    109      -1.6987      1.00000
    110      -1.4285      1.00000
    111      -1.3488      1.00000
    112      -1.2746      1.00000
    113      -1.1210      1.00000
    114      -0.9262      1.00000
    115      -0.7896      1.00000
    116      -0.7466      1.00000
    117      -0.5722      1.00000
    118      -0.5074      1.00000
    119      -0.4455      1.00000
    120      -0.3738      1.00000
    121       0.3039      0.89381
    122       0.3504      0.00000
    123       1.0577      0.00000
    124       1.2257      0.00000
    125       1.2340      0.00000
    126       2.4920      0.00000
    127       2.5093      0.00000
    128       2.5471      0.00000
    129       2.6780      0.00000
    130       2.7018      0.00000
    131       2.8243      0.00000
    132       2.8795      0.00000
    133       3.0149      0.00000
    134       3.0349      0.00000
    135       3.0535      0.00000
    136       3.2636      0.00000
    137       3.2857      0.00000
    138       3.3920      0.00000
    139       3.4627      0.00000
    140       3.7016      0.00000
    141       3.8731      0.00000
    142       3.9017      0.00000
    143       3.9189      0.00000
    144       4.0777      0.00000
    145       4.1739      0.00000
    146       4.2212      0.00000
    147       4.2719      0.00000
    148       4.3089      0.00000
    149       4.3921      0.00000
    150       4.5190      0.00000
    151       4.6388      0.00000
    152       4.6994      0.00000
    153       4.8041      0.00000
    154       5.2002      0.00000
    155       5.2781      0.00000
    156       5.7992      0.00000
    157       5.9256      0.00000
    158       6.1663      0.00000
    159       6.3158      0.00000
    160       6.5320      0.00000

 k-point     4 :      -0.2500   -0.2500    0.2500
  band No.  band energies     occupation 
      1     -36.8302      1.00000
      2     -36.7599      1.00000
      3     -36.7440      1.00000
      4     -35.0969      1.00000
      5     -35.0767      1.00000
      6     -34.9280      1.00000
      7     -34.7533      1.00000
      8     -34.6474      1.00000
      9     -34.4925      1.00000
     10     -34.4810      1.00000
     11     -34.3985      1.00000
     12     -34.3387      1.00000
     13     -34.3157      1.00000
     14     -34.1960      1.00000
     15     -34.1674      1.00000
     16     -34.1652      1.00000
     17     -34.1394      1.00000
     18     -34.1052      1.00000
     19     -33.9478      1.00000
     20     -33.8269      1.00000
     21     -33.8258      1.00000
     22     -33.8218      1.00000
     23     -33.6760      1.00000
     24     -33.6333      1.00000
     25     -24.5333      1.00000
     26     -24.2026      1.00000
     27     -24.0172      1.00000
     28     -23.8664      1.00000
     29     -23.8185      1.00000
     30     -23.6177      1.00000
     31     -23.4489      1.00000
     32     -23.3700      1.00000
     33     -23.2479      1.00000
     34     -23.1732      1.00000
     35     -23.0246      1.00000
     36     -22.9643      1.00000
     37     -22.9134      1.00000
     38     -22.7113      1.00000
     39     -21.9471      1.00000
     40     -21.8148      1.00000
     41     -16.5457      1.00000
     42     -16.4364      1.00000
     43     -16.2992      1.00000
     44     -16.0523      1.00000
     45     -15.8480      1.00000
     46     -15.6147      1.00000
     47     -15.5120      1.00000
     48     -15.3806      1.00000
     49      -8.0097      1.00000
     50      -7.7674      1.00000
     51      -7.3690      1.00000
     52      -7.0766      1.00000
     53      -6.7951      1.00000
     54      -6.7291      1.00000
     55      -6.6882      1.00000
     56      -6.6641      1.00000
     57      -6.6002      1.00000
     58      -6.4798      1.00000
     59      -6.4582      1.00000
     60      -6.2646      1.00000
     61      -6.2099      1.00000
     62      -6.0189      1.00000
     63      -5.8475      1.00000
     64      -5.7477      1.00000
     65      -5.7411      1.00000
     66      -5.6038      1.00000
     67      -5.5862      1.00000
     68      -5.5089      1.00000
     69      -5.4590      1.00000
     70      -5.4266      1.00000
     71      -5.2939      1.00000
     72      -5.2554      1.00000
     73      -5.1059      1.00000
     74      -5.0823      1.00000
     75      -4.9434      1.00000
     76      -4.8909      1.00000
     77      -4.8041      1.00000
     78      -4.7917      1.00000
     79      -4.6589      1.00000
     80      -4.6313      1.00000
     81      -4.5991      1.00000
     82      -4.4977      1.00000
     83      -4.4619      1.00000
     84      -4.4429      1.00000
     85      -4.3202      1.00000
     86      -4.2683      1.00000
     87      -4.1760      1.00000
     88      -4.1605      1.00000
     89      -4.0264      1.00000
     90      -3.9746      1.00000
     91      -3.9602      1.00000
     92      -3.8841      1.00000
     93      -3.8311      1.00000
     94      -3.7357      1.00000
     95      -3.7138      1.00000
     96      -3.6448      1.00000
     97      -3.2366      1.00000
     98      -3.2211      1.00000
     99      -3.2032      1.00000
    100      -3.0657      1.00000
    101      -3.0168      1.00000
    102      -2.8484      1.00000
    103      -2.4762      1.00000
    104      -2.3983      1.00000
    105      -2.2285      1.00000
    106      -2.0715      1.00000
    107      -1.9385      1.00000
    108      -1.8058      1.00000
    109      -1.6982      1.00000
    110      -1.4269      1.00000
    111      -1.3488      1.00000
    112      -1.2611      1.00000
    113      -1.1288      1.00000
    114      -0.9265      1.00000
    115      -0.7899      1.00000
    116      -0.7484      1.00000
    117      -0.5738      1.00000
    118      -0.5075      1.00000
    119      -0.4455      1.00000
    120      -0.3738      1.00000
    121       0.3039      0.89405
    122       0.3504      0.00000
    123       1.0577      0.00000
    124       1.2265      0.00000
    125       1.2340      0.00000
    126       2.4947      0.00000
    127       2.5062      0.00000
    128       2.5476      0.00000
    129       2.6785      0.00000
    130       2.7018      0.00000
    131       2.8233      0.00000
    132       2.8802      0.00000
    133       3.0134      0.00000
    134       3.0355      0.00000
    135       3.0528      0.00000
    136       3.2666      0.00000
    137       3.2846      0.00000
    138       3.3921      0.00000
    139       3.4629      0.00000
    140       3.7001      0.00000
    141       3.8724      0.00000
    142       3.9034      0.00000
    143       3.9191      0.00000
    144       4.0773      0.00000
    145       4.1753      0.00000
    146       4.2168      0.00000
    147       4.2714      0.00000
    148       4.3130      0.00000
    149       4.3929      0.00000
    150       4.5104      0.00000
    151       4.6448      0.00000
    152       4.6991      0.00000
    153       4.8058      0.00000
    154       5.2046      0.00000
    155       5.2751      0.00000
    156       5.7923      0.00000
    157       5.9289      0.00000
    158       6.1671      0.00000
    159       6.3172      0.00000
    160       6.5309      0.00000

 spin component 2

 k-point     1 :       0.2500    0.2500    0.2500
  band No.  band energies     occupation 
      1     -36.7626      1.00000
      2     -36.7218      1.00000
      3     -36.6922      1.00000
      4     -35.0712      1.00000
      5     -35.0515      1.00000
      6     -34.7433      1.00000
      7     -34.6058      1.00000
      8     -34.4800      1.00000
      9     -34.3676      1.00000
     10     -34.3120      1.00000
     11     -34.2888      1.00000
     12     -34.1922      1.00000
     13     -34.1647      1.00000
     14     -34.1013      1.00000
     15     -33.9437      1.00000
     16     -33.8240      1.00000
     17     -33.8239      1.00000
     18     -33.8188      1.00000
     19     -33.6736      1.00000
     20     -33.6309      1.00000
     21     -33.3969      1.00000
     22     -33.3233      1.00000
     23     -33.0997      1.00000
     24     -33.0701      1.00000
     25     -24.5285      1.00000
     26     -24.2005      1.00000
     27     -24.0037      1.00000
     28     -23.8642      1.00000
     29     -23.8176      1.00000
     30     -23.6057      1.00000
     31     -23.4504      1.00000
     32     -23.3619      1.00000
     33     -23.2327      1.00000
     34     -23.1511      1.00000
     35     -23.0286      1.00000
     36     -22.9729      1.00000
     37     -22.8508      1.00000
     38     -22.7199      1.00000
     39     -21.9435      1.00000
     40     -21.8152      1.00000
     41     -16.5572      1.00000
     42     -16.4802      1.00000
     43     -16.3208      1.00000
     44     -16.0664      1.00000
     45     -15.8841      1.00000
     46     -15.6408      1.00000
     47     -15.5382      1.00000
     48     -15.4061      1.00000
     49      -7.9702      1.00000
     50      -7.7602      1.00000
     51      -7.3650      1.00000
     52      -7.0269      1.00000
     53      -6.7588      1.00000
     54      -6.6507      1.00000
     55      -6.6486      1.00000
     56      -6.5918      1.00000
     57      -6.5284      1.00000
     58      -6.4705      1.00000
     59      -6.4097      1.00000
     60      -6.2635      1.00000
     61      -6.2063      1.00000
     62      -5.9348      1.00000
     63      -5.7455      1.00000
     64      -5.7305      1.00000
     65      -5.6022      1.00000
     66      -5.5709      1.00000
     67      -5.4989      1.00000
     68      -5.4613      1.00000
     69      -5.4413      1.00000
     70      -5.4185      1.00000
     71      -5.2878      1.00000
     72      -5.2526      1.00000
     73      -5.0802      1.00000
     74      -4.9609      1.00000
     75      -4.8883      1.00000
     76      -4.8708      1.00000
     77      -4.7880      1.00000
     78      -4.7659      1.00000
     79      -4.6544      1.00000
     80      -4.6300      1.00000
     81      -4.5906      1.00000
     82      -4.4926      1.00000
     83      -4.4599      1.00000
     84      -4.4084      1.00000
     85      -4.3077      1.00000
     86      -4.2725      1.00000
     87      -4.1735      1.00000
     88      -4.1219      1.00000
     89      -4.0296      1.00000
     90      -3.9712      1.00000
     91      -3.9082      1.00000
     92      -3.8798      1.00000
     93      -3.8357      1.00000
     94      -3.7408      1.00000
     95      -3.7274      1.00000
     96      -3.6462      1.00000
[...]
  0.000   0.000   0.000  -0.000  -0.000   0.000   0.000  -0.003   0.000   0.010   0.000   0.000  -0.002  -0.000  -0.003  -0.000
 -0.000  -0.000  -0.000  -0.000  -0.000  -0.000  -0.000  -0.000  -0.004   0.000   0.016   0.000  -0.000   0.000   0.000  -0.001
 -0.000  -0.000   0.000  -0.000   0.000   0.000  -0.003  -0.000  -0.000   0.000   0.000  -0.007  -0.000   0.000   0.000  -0.000
 -0.000   0.000   0.000  -0.000  -0.000   0.000  -0.000   0.565   0.000  -0.002  -0.000  -0.000   0.454   0.000  -0.001  -0.000
  0.000   0.000   0.000  -0.000  -0.000   0.000   0.000   0.000  -0.003  -0.000   0.000   0.000   0.000  -0.016   0.000   0.005
 -0.000  -0.000   0.000   0.000   0.000   0.000   0.000  -0.002  -0.000  -0.003   0.000   0.000  -0.001   0.000  -0.006  -0.000
 -0.000  -0.000   0.000  -0.000   0.000  -0.000   0.000  -0.000   0.000  -0.000  -0.001  -0.000  -0.000   0.005  -0.000  -0.026
  0.000   0.000   0.000   0.000   0.000   0.000  -0.000   0.000   0.004  -0.000  -0.007   0.000   0.000  -0.015   0.000   0.022
  0.000   0.000  -0.000   0.000  -0.000  -0.000  -0.000  -0.000   0.011  -0.000  -0.024   0.000  -0.000  -0.016   0.000   0.035


------------------------ aborting loop because EDIFF is reached ----------------------------------------


 


 total charge     
 
# of ion       s       p       d       tot
------------------------------------------
    1        0.249   6.357   1.842   8.448
    2        0.324   6.512   1.735   8.572
    3        0.252   6.360   1.835   8.447
    4        0.311   6.469   1.869   8.649
    5        0.305   6.444   1.726   8.476
    6        0.302   6.455   1.736   8.493
    7        0.304   6.446   1.721   8.472
    8        0.305   6.442   1.679   8.426
    9        1.575   3.428   0.000   5.003
   10        1.574   3.346   0.000   4.920
   11        1.572   3.420   0.000   4.993
   12        1.574   3.347   0.000   4.922
   13        1.570   3.388   0.000   4.958
   14        1.570   3.388   0.000   4.958
   15        1.570   3.385   0.000   4.955
   16        1.570   3.385   0.000   4.955
   17        1.729   4.389   0.000   6.119
   18        1.733   4.373   0.000   6.106
   19        1.730   4.390   0.000   6.120
   20        1.728   4.367   0.000   6.095
   21        1.730   4.389   0.000   6.119
   22        1.733   4.373   0.000   6.105
   23        1.729   4.389   0.000   6.118
   24        1.729   4.405   0.000   6.133
   25        1.731   4.387   0.000   6.118
   26        1.728   4.403   0.000   6.132
   27        1.731   4.387   0.000   6.118
   28        1.729   4.363   0.000   6.092
   29        1.732   4.397   0.000   6.129
   30        1.732   4.397   0.000   6.129
   31        1.731   4.402   0.000   6.133
   32        1.731   4.402   0.000   6.133
--------------------------------------------------
tot         42.613 148.788  14.144 205.545
 


 magnetization (x)
 
# of ion       s       p       d       tot
------------------------------------------
    1        0.004   0.006   0.871   0.882
    2        0.000   0.000   0.051   0.052
    3        0.004   0.006   0.855   0.865
    4       -0.000   0.000   0.020   0.020
    5        0.000   0.000   0.004   0.004
    6        0.000   0.000   0.003   0.003
    7        0.000   0.000   0.004   0.004
    8        0.000   0.000   0.002   0.003
    9       -0.000  -0.003   0.000  -0.003
   10       -0.004  -0.294   0.000  -0.299
   11       -0.000  -0.033   0.000  -0.033
   12        0.004   0.275   0.000   0.279
   13       -0.000  -0.015   0.000  -0.015
   14       -0.000  -0.015   0.000  -0.015
   15       -0.000  -0.014   0.000  -0.014
   16       -0.000  -0.014   0.000  -0.015
   17       -0.000  -0.009   0.000  -0.009
   18       -0.000  -0.001   0.000  -0.001
   19       -0.000  -0.009   0.000  -0.009
   20       -0.000  -0.000   0.000  -0.000
   21       -0.000  -0.009   0.000  -0.009
   22       -0.000  -0.001   0.000  -0.001
   23       -0.000  -0.009   0.000  -0.009
   24       -0.001   0.012   0.000   0.011
   25        0.000   0.001   0.000   0.001
   26       -0.001   0.012   0.000   0.011
   27        0.000   0.001   0.000   0.001
   28       -0.000   0.002   0.000   0.002
   29       -0.000  -0.004   0.000  -0.005
   30       -0.000  -0.004   0.000  -0.005
   31       -0.000  -0.000   0.000  -0.001
   32       -0.000  -0.000   0.000  -0.001
--------------------------------------------------
tot          0.003  -0.120   1.811   1.695
 
    CHARGE:  cpu time    0.4149: real time    0.4135
    FORLOC:  cpu time    0.0100: real time    0.0099
    FORNL :  cpu time    2.0617: real time    2.0517
    STRESS:  cpu time    6.3780: real time    6.3511
    FORCOR:  cpu time    0.1400: real time    0.1392
    FORHAR:  cpu time    0.0220: real time    0.0213
    MIXING:  cpu time    0.0010: real time    0.0023
    OFIELD:  cpu time    0.0000: real time    0.0000

  FORCE on cell =-STRESS in cart. coord.  units (eV):
  Direction    XX          YY          ZZ          XY          YZ          ZX
  --------------------------------------------------------------------------------------
  Alpha Z   740.35467   740.35467   740.35467
  Ewald   -4282.84073 -4230.47735 -4102.83191     0.79136    -0.06340    -0.02242
  Hartree  2724.44156  2792.14235  2867.24572     0.43351    -0.03445    -0.01022
  E(xc)   -1231.37116 -1231.79448 -1231.90855     0.00057    -0.00003    -0.00006
  Local   -2068.87686 -2220.42452 -2435.44725    -1.17559     0.09717     0.02842
  n-local  -975.16498  -969.33457  -966.08218     0.01667    -0.00015    -0.00125
  augment   740.20172   759.52889   764.23866    -0.02301     0.00016     0.00245
  Kinetic  4353.39416  4360.11630  4364.50283    -0.04240     0.00103     0.00318
  Fock        0.00000     0.00000     0.00000     0.00000     0.00000     0.00000
  -------------------------------------------------------------------------------------
  Total       0.13837     0.11128     0.07197     0.00111     0.00033     0.00012
  in kB       0.46873     0.37695     0.24381     0.00375     0.00113     0.00039
  external pressure =        0.36 kB  Pullay stress =        0.00 kB


 VOLUME and BASIS-vectors are now :
 -----------------------------------------------------------------------------
  energy-cutoff  :      700.00
  volume of cell :      472.97
      direct lattice vectors                 reciprocal lattice vectors
     7.885851266  0.000201705 -0.000020782     0.126809392 -0.000003280  0.000000300
     0.000201608  7.795255746 -0.000054334    -0.000003281  0.128283155  0.000000915
    -0.000018198 -0.000054862  7.694055862     0.000000342  0.000000906  0.129970463

  length of vectors
     7.885851268  7.795255749  7.694055863     0.126809392  0.128283155  0.129970463


 FORCES acting on ions
    electron-ion (+dipol)            ewald-force                    non-local-force                 convergence-correction
 -----------------------------------------------------------------------------------------------
   0.869E+00 0.620E+01 0.938E-03   -.884E+00 -.610E+01 -.102E-02   0.168E-01 -.105E+00 -.266E-04   0.167E-04 -.191E-03 0.124E-03
   0.365E+01 -.465E+00 0.821E-03   -.366E+01 0.461E+00 -.700E-03   0.827E-02 0.368E-02 -.527E-05   0.433E-04 -.209E-03 -.124E-03
   0.110E+02 -.637E+01 0.140E-02   -.108E+02 0.626E+01 -.146E-02   -.117E+00 0.109E+00 -.393E-04   0.568E-04 0.180E-03 0.898E-04
   0.189E+02 0.559E+00 -.169E-02   -.185E+02 -.553E+00 0.174E-02   -.468E+00 -.702E-02 0.232E-04   0.615E-03 0.203E-03 -.875E-04
   -.820E+00 0.632E+00 -.571E-02   0.841E+00 -.169E+01 0.465E-02   -.186E-01 0.106E+01 -.942E-05   -.210E-04 -.312E-03 0.102E-02
   -.599E+01 -.424E+01 0.379E-02   0.593E+01 0.420E+01 -.277E-02   0.668E-01 0.388E-01 -.102E-04   -.440E-04 -.108E-02 -.100E-02
   -.897E+01 -.316E+01 0.418E-02   0.887E+01 0.429E+01 -.458E-02   0.105E+00 -.112E+01 -.164E-04   -.551E-04 0.337E-03 0.382E-03
   -.181E+02 0.467E+01 0.939E-02   0.188E+02 -.462E+01 -.886E-02   -.683E+00 -.544E-01 -.137E-03   -.389E-03 0.110E-02 -.384E-03
   0.137E+03 0.890E+00 -.376E-02   -.147E+03 -.898E+00 0.411E-02   0.106E+02 0.614E-02 -.241E-03   0.441E-03 0.243E-03 -.121E-03
   -.347E+01 -.199E+02 0.539E-04   0.339E+01 0.211E+02 0.403E-03   0.655E-01 -.116E+01 -.154E-03   -.875E-04 -.121E-04 -.331E-03
   -.214E+01 0.967E+01 0.515E-02   0.214E+01 -.106E+02 -.610E-02   0.713E-02 0.922E+00 0.730E-03   -.862E-05 0.103E-03 0.338E-03
   -.348E+01 0.195E+02 0.102E-02   0.341E+01 -.206E+02 -.656E-03   0.603E-01 0.113E+01 -.704E-04   -.758E-04 -.132E-04 -.330E-03
   -.160E+01 -.421E+01 -.654E+01   0.158E+01 0.483E+01 0.678E+01   0.176E-01 -.616E+00 -.237E+00   -.193E-04 -.400E-03 -.484E-03
   -.159E+01 -.421E+01 0.654E+01   0.158E+01 0.482E+01 -.678E+01   0.179E-01 -.615E+00 0.237E+00   -.183E-04 -.395E-03 0.451E-03
   -.458E+01 0.356E+01 -.226E+02   0.450E+01 -.408E+01 0.236E+02   0.760E-01 0.531E+00 -.100E+01   -.876E-04 0.380E-03 -.350E-03
   -.459E+01 0.356E+01 0.225E+02   0.451E+01 -.409E+01 -.235E+02   0.754E-01 0.532E+00 0.100E+01   -.836E-04 0.375E-03 0.352E-03
   -.645E+02 -.611E+01 -.436E-02   0.696E+02 0.757E+01 0.461E-02   -.506E+01 -.145E+01 -.505E-03   0.329E-03 -.529E-04 0.237E-03
   -.129E+03 -.866E+00 0.180E-02   0.141E+03 0.870E+00 -.166E-02   -.115E+02 -.230E-02 0.827E-04   0.137E-03 -.280E-03 -.229E-03
   -.606E+02 0.555E+01 0.239E-02   0.649E+02 -.689E+01 -.374E-02   -.425E+01 0.133E+01 0.124E-02   0.722E-03 0.164E-03 0.175E-03
   -.797E+02 0.979E+00 0.757E-02   0.814E+02 -.983E+00 -.790E-02   -.173E+01 0.126E-02 0.491E-03   -.299E-03 0.269E-03 -.149E-03
   0.644E+02 -.620E+01 0.220E-02   -.695E+02 0.766E+01 -.288E-02   0.504E+01 -.145E+01 0.452E-03   -.333E-03 -.345E-03 0.247E-03
   0.131E+03 -.867E+00 0.130E-02   -.142E+03 0.867E+00 -.134E-02   0.115E+02 0.131E-02 0.285E-03   -.133E-03 -.308E-03 -.227E-03
   0.610E+02 0.515E+01 -.204E-02   -.656E+02 -.643E+01 0.300E-02   0.460E+01 0.127E+01 -.112E-02   -.723E-03 0.198E-03 0.133E-03
   0.421E+01 -.613E+01 -.915E-03   -.437E+01 0.703E+01 0.865E-03   0.159E+00 -.903E+00 -.217E-04   0.161E-03 -.411E-03 0.739E-04
   -.732E+01 -.524E+02 0.122E-02   0.977E+01 0.583E+02 -.102E-02   -.247E+01 -.589E+01 -.156E-03   0.968E-04 0.398E-03 -.744E-04
   0.421E+01 0.630E+01 0.904E-03   -.438E+01 -.721E+01 -.890E-03   0.169E+00 0.911E+00 -.957E-04   -.123E-03 0.418E-03 0.739E-04
   -.728E+01 0.524E+02 -.129E-02   0.974E+01 -.583E+02 0.133E-02   -.247E+01 0.590E+01 0.637E-04   0.673E-04 -.401E-03 -.745E-04
   -.260E+01 -.433E+01 -.721E-03   0.259E+01 0.460E+01 0.155E-03   0.174E-01 -.271E+00 0.202E-03   -.433E-04 -.114E-03 0.375E-03
   0.247E+01 0.125E+01 0.553E+02   -.260E+01 -.129E+01 -.628E+02   0.134E+00 0.364E-01 0.751E+01   0.153E-04 -.163E-03 -.286E-03
   0.247E+01 0.124E+01 -.553E+02   -.260E+01 -.128E+01 0.628E+02   0.134E+00 0.341E-01 -.751E+01   0.244E-04 -.163E-03 0.278E-03
   -.151E+02 -.132E+01 0.179E+02   0.191E+02 0.136E+01 -.214E+02   -.404E+01 -.347E-01 0.349E+01   0.102E-03 0.154E-03 0.586E-03
   -.151E+02 -.133E+01 -.179E+02   0.191E+02 0.137E+01 0.214E+02   -.404E+01 -.363E-01 -.349E+01   0.571E-04 0.154E-03 -.593E-03
 -----------------------------------------------------------------------------------------------
   0.401E+01 -.928E-01 0.118E-02   0.348E-12 -.584E-13 -.533E-13   -.400E+01 0.952E-01 -.113E-02   0.339E-03 -.179E-03 0.877E-04
 
 
 POSITION                                       TOTAL-FORCE (eV/Angst)
 -----------------------------------------------------------------------------------
      0.00039      0.00261      7.69405         0.001687      0.001050      0.000007
      0.00837      7.79513      3.84697         0.001862     -0.000379     -0.000012
      0.00893      3.89653      7.69402         0.005981      0.000893     -0.000011
      7.71673      3.89776      3.84698        -0.003239     -0.000651     -0.000013
      3.94383      7.70229     -0.00006         0.002505     -0.001601     -0.000059
      3.94675      7.79348      3.84697         0.000246      0.002251      0.000007
      3.94496      3.98007     -0.00002         0.004631      0.000023     -0.000034
      3.94060      3.89956      3.84700        -0.007414      0.000455      0.000000
      5.99628      3.89776      3.84700        -0.005381     -0.002145     -0.000014
      3.93783      1.92953      3.84703        -0.008686      0.000389     -0.000033
      3.94532      5.85504      7.69398         0.005296     -0.000299      0.000111
      3.93820      5.86513      3.84698        -0.008950      0.000226     -0.000042
      3.94548      7.78522      1.92770         0.004338     -0.004803      0.000120
      3.94546      7.78515      5.76624         0.004353     -0.004669     -0.000143
      3.93801      3.90931      1.91307        -0.005480      0.004219      0.000597
      3.93803      3.90923      5.78089        -0.005520      0.004336     -0.000483
      1.92803      0.02402      0.00002         0.002048      0.005391     -0.000025
      1.87209      7.79472      3.84697        -0.001135      0.001307     -0.000008
      1.94028      3.87494      7.69397         0.004787     -0.008010      0.000059
      1.87172      3.89799      3.84697        -0.004881     -0.002607      0.000011
      5.95860      0.02401      7.69402         0.001662      0.005500      0.000015
      6.02673      7.79472      3.84695        -0.000499      0.001047      0.000017
      5.96053      3.87641      0.00001         0.004134     -0.005987     -0.000031
      7.88238      1.94440      7.69402        -0.001733      0.000022     -0.000002
      0.02028      1.90195      3.84702        -0.007890     -0.000996     -0.000033
      7.88189      5.85291      7.69399        -0.002892      0.000921     -0.000012
      0.02034      5.89318      3.84698        -0.008073      0.000505      0.000017
      3.94555      1.94097      7.69403         0.006152     -0.000474      0.000007
      7.88579      7.79441      1.98261         0.003468     -0.000570      0.000474
      7.88578      7.79446      5.71129         0.003491     -0.000669     -0.000463
      0.05802      3.89947      1.96013         0.007601      0.002665      0.001435
      0.05809      3.89950      5.73387         0.007530      0.002661     -0.001460
 -----------------------------------------------------------------------------------
    total drift:                                0.007894      0.002274      0.000139


--------------------------------------------------------------------------------------------------------



  FREE ENERGIE OF THE ION-ELECTRON SYSTEM (eV)
  ---------------------------------------------------
  free  energy   TOTEN  =      -207.39561003 eV

  energy  without entropy=     -207.39301952  energy(sigma->0) =     -207.39431477
 


--------------------------------------------------------------------------------------------------------


    POTLOK:  cpu time    0.9779: real time    0.9758


--------------------------------------------------------------------------------------------------------


 stress matrix after NEB project (eV)
      0.13837      0.00111      0.00012
      0.00111      0.11128      0.00033
      0.00012      0.00033      0.07197
  FORCES: max atom, RMS     0.009332    0.005921
  FORCE total and by dimension    0.033495    0.008950
  Stress total and by dimension    0.191604    0.138371
 Quasi-Newton relaxation of ions (Broydens 2nd method)
  g(Force)  = 0.541E-04   g(Stress)= 0.553E-04

 Reset! Starting new Quasi-Newton update for ions 


--------------------------------------------------------------------------------------------------------


  
 reached required accuracy - stopping structural energy minimisation
 writing wavefunctions
     LOOP+:  cpu time   84.3822: real time   89.4454
    4ORBIT:  cpu time    0.0000: real time    0.0000
 


 total charge     
 
# of ion       s       p       d       tot
------------------------------------------
    1        0.249   6.357   1.842   8.448
    2        0.324   6.512   1.735   8.572
    3        0.252   6.360   1.835   8.447
    4        0.311   6.469   1.869   8.649
    5        0.305   6.444   1.726   8.476
    6        0.302   6.455   1.736   8.493
    7        0.304   6.446   1.721   8.472
    8        0.305   6.442   1.679   8.426
    9        1.575   3.428   0.000   5.003
   10        1.574   3.346   0.000   4.920
   11        1.572   3.420   0.000   4.993
   12        1.574   3.347   0.000   4.922
   13        1.570   3.388   0.000   4.958
   14        1.570   3.388   0.000   4.958
   15        1.570   3.385   0.000   4.955
   16        1.570   3.385   0.000   4.955
   17        1.729   4.389   0.000   6.119
   18        1.733   4.373   0.000   6.106
   19        1.730   4.390   0.000   6.120
   20        1.728   4.367   0.000   6.095
   21        1.730   4.389   0.000   6.119
   22        1.733   4.373   0.000   6.105
   23        1.729   4.389   0.000   6.118
   24        1.729   4.405   0.000   6.133
   25        1.731   4.387   0.000   6.118
   26        1.728   4.403   0.000   6.132
   27        1.731   4.387   0.000   6.118
   28        1.729   4.363   0.000   6.092
   29        1.732   4.397   0.000   6.129
   30        1.732   4.397   0.000   6.129
   31        1.731   4.402   0.000   6.133
   32        1.731   4.402   0.000   6.133
--------------------------------------------------
tot         42.613 148.788  14.144 205.545
 


 magnetization (x)
 
# of ion       s       p       d       tot
------------------------------------------
    1        0.004   0.006   0.871   0.882
    2        0.000   0.000   0.051   0.052
    3        0.004   0.006   0.855   0.865
    4       -0.000   0.000   0.020   0.020
    5        0.000   0.000   0.004   0.004
    6        0.000   0.000   0.003   0.003
    7        0.000   0.000   0.004   0.004
    8        0.000   0.000   0.002   0.003
    9       -0.000  -0.003   0.000  -0.003
   10       -0.004  -0.294   0.000  -0.299
   11       -0.000  -0.033   0.000  -0.033
   12        0.004   0.275   0.000   0.279
   13       -0.000  -0.015   0.000  -0.015
   14       -0.000  -0.015   0.000  -0.015
   15       -0.000  -0.014   0.000  -0.014
   16       -0.000  -0.014   0.000  -0.015
   17       -0.000  -0.009   0.000  -0.009
   18       -0.000  -0.001   0.000  -0.001
   19       -0.000  -0.009   0.000  -0.009
   20       -0.000  -0.000   0.000  -0.000
   21       -0.000  -0.009   0.000  -0.009
   22       -0.000  -0.001   0.000  -0.001
   23       -0.000  -0.009   0.000  -0.009
   24       -0.001   0.012   0.000   0.011
   25        0.000   0.001   0.000   0.001
   26       -0.001   0.012   0.000   0.011
   27        0.000   0.001   0.000   0.001
   28       -0.000   0.002   0.000   0.002
   29       -0.000  -0.004   0.000  -0.005
   30       -0.000  -0.004   0.000  -0.005
   31       -0.000  -0.000   0.000  -0.001
   32       -0.000  -0.000   0.000  -0.001
--------------------------------------------------
tot          0.003  -0.120   1.811   1.695
 

 total amount of memory used by VASP MPI-rank0    62210. kBytes
=======================================================================

   base      :      30000. kBytes
   nonlr-proj:       8388. kBytes
   fftplans  :       8423. kBytes
   grid      :       8783. kBytes
   one-center:        124. kBytes
   wavefun   :       6492. kBytes
 
  
  
 General timing and accounting informations for this job:
 ========================================================
  
                  Total CPU time used (sec):      101.899
                            User time (sec):       94.828
                          System time (sec):        7.071
                         Elapsed time (sec):      116.292
  
                   Maximum memory used (kb):      172812.
                   Average memory used (kb):           0.
  
                          Minor page faults:       134816
                          Major page faults:            2
                 Voluntary context switches:        20344
