 vasp.5.4.4.18Apr17-6-g9f103f2a35 (build Jul 16 2019 12:12:28) complex          
  
 executed on             LinuxIFC date 2020.01.06  10:24:26
 running on   96 total cores
 distrk:  each k-point on   96 cores,    1 groups
 distr:  one band on NCORES_PER_BAND=   8 cores,   12 groups


--------------------------------------------------------------------------------------------------------


 INCAR:
 POTCAR:    PAW_PBE Li_sv 10Sep2004               
 POTCAR:    PAW_PBE Ti_pv 07Sep2000               
 POTCAR:    PAW_PBE O 08Apr2002                   
 POTCAR:    PAW_PBE F 08Apr2002                   
 POTCAR:    PAW_PBE Li_sv 10Sep2004               
   VRHFIN =Li: 1s2s2p                                                           
   LEXCH  = PE                                                                  
   EATOM  =   202.7858 eV,   14.9043 Ry                                         
                                                                                
   TITEL  = PAW_PBE Li_sv 10Sep2004                                             
   LULTRA =        F    use ultrasoft PP ?                                      
   IUNSCR =        0    unscreen: 0-lin 1-nonlin 2-no                           
   RPACOR =    0.000    partial core radius                                     
   POMASS =    7.010; ZVAL   =    3.000    mass and valenz                      
   RCORE  =    1.700    outmost cutoff radius                                   
   RWIGS  =    2.050; RWIGS  =    1.085    wigner-seitz radius (au A)           
   ENMAX  =  499.034; ENMIN  =  374.276 eV                                      
   ICORE  =        2    local potential                                         
   LCOR   =        T    correct aug charges                                     
   LPAW   =        T    paw PP                                                  
   EAUG   =  628.945                                                            
   RMAX   =    1.732    core radius for proj-oper                               
   RAUG   =    1.300    factor for augmentation sphere                          
   RDEP   =    1.728    radius for radial grids                                 
   RDEPT  =    1.329    core radius for aug-charge                              
                                                                                
   Atomic configuration                                                         
    4 entries                                                                   
     n  l   j            E        occ.                                          
     1  0  0.50       -51.8549   2.0000                                         
     2  0  0.50        -2.8742   1.0000                                         
     2  1  0.50        -1.3606   0.0000                                         
     3  2  1.50        -1.3606   0.0000                                         
   Description                                                                  
     l       E           TYP  RCUT    TYP  RCUT                                 
     0    -51.8548813     23  1.400                                             
     0     -2.8742052     23  1.700                                             
     1     -1.3605826     23  1.400                                             
     2     -1.3605826     23  1.400                                             
  local pseudopotential read in
  atomic valenz-charges read in
  non local Contribution for L=           0  read in
    real space projection operators read in
  non local Contribution for L=           0  read in
    real space projection operators read in
  non local Contribution for L=           1  read in
    real space projection operators read in
    PAW grid and wavefunctions read in
 
   number of l-projection  operators is LMAX  =           3
   number of lm-projection operators is LMMAX =           5
 
 POTCAR:    PAW_PBE Ti_pv 07Sep2000               
   VRHFIN =Ti: d3 s1                                                            
   LEXCH  = PE                                                                  
   EATOM  =  1042.5995 eV,   76.6289 Ry                                         
                                                                                
   TITEL  = PAW_PBE Ti_pv 07Sep2000                                             
   LULTRA =        F    use ultrasoft PP ?                                      
   IUNSCR =        1    unscreen: 0-lin 1-nonlin 2-no                           
   RPACOR =    2.200    partial core radius                                     
   POMASS =   47.880; ZVAL   =   10.000    mass and valenz                      
   RCORE  =    2.500    outmost cutoff radius                                   
   RWIGS  =    2.500; RWIGS  =    1.323    wigner-seitz radius (au A)           
   ENMAX  =  222.335; ENMIN  =  166.751 eV                                      
   RCLOC  =    1.701    cutoff for local pot                                    
   LCOR   =        T    correct aug charges                                     
   LPAW   =        T    paw PP                                                  
   EAUG   =  482.848                                                            
   DEXC   =    0.000                                                            
   RMAX   =    2.564    core radius for proj-oper                               
   RAUG   =    1.300    factor for augmentation sphere                          
   RDEP   =    2.538    radius for radial grids                                 
   RDEPT  =    1.952    core radius for aug-charge                              
                                                                                
   Atomic configuration                                                         
    8 entries                                                                   
     n  l   j            E        occ.                                          
     1  0  0.50     -4865.3608   2.0000                                         
     2  0  0.50      -533.1368   2.0000                                         
     2  1  1.50      -440.5031   6.0000                                         
     3  0  0.50       -59.3186   2.0000                                         
     3  1  1.50       -35.7012   6.0000                                         
     3  2  2.50        -1.9157   3.0000                                         
     4  0  0.50        -3.7291   1.0000                                         
     4  3  2.50        -1.3606   0.0000                                         
   Description                                                                  
     l       E           TYP  RCUT    TYP  RCUT                                 
     1    -35.7012140     23  2.300                                             
     1     -1.3605826     23  2.300                                             
     2     -1.9156996     23  2.500                                             
     2     -0.4063033     23  2.500                                             
     0     -3.7290856     23  2.500                                             
     0     20.4087390     23  2.500                                             
  local pseudopotential read in
  partial core-charges read in
  partial kinetic energy density read in
  atomic valenz-charges read in
  non local Contribution for L=           1  read in
    real space projection operators read in
  non local Contribution for L=           1  read in
    real space projection operators read in
  non local Contribution for L=           2  read in
    real space projection operators read in
  non local Contribution for L=           2  read in
    real space projection operators read in
  non local Contribution for L=           0  read in
    real space projection operators read in
  non local Contribution for L=           0  read in
    real space projection operators read in
    PAW grid and wavefunctions read in
 
   number of l-projection  operators is LMAX  =           6
   number of lm-projection operators is LMMAX =          18
 
 POTCAR:    PAW_PBE O 08Apr2002                   
   VRHFIN =O: s2p4                                                              
   LEXCH  = PE                                                                  
   EATOM  =   432.3788 eV,   31.7789 Ry                                         
                                                                                
   TITEL  = PAW_PBE O 08Apr2002                                                 
   LULTRA =        F    use ultrasoft PP ?                                      
   IUNSCR =        1    unscreen: 0-lin 1-nonlin 2-no                           
   RPACOR =    1.200    partial core radius                                     
   POMASS =   16.000; ZVAL   =    6.000    mass and valenz                      
   RCORE  =    1.520    outmost cutoff radius                                   
   RWIGS  =    1.550; RWIGS  =    0.820    wigner-seitz radius (au A)           
   ENMAX  =  400.000; ENMIN  =  300.000 eV                                      
   ICORE  =        2    local potential                                         
   LCOR   =        T    correct aug charges                                     
   LPAW   =        T    paw PP                                                  
   EAUG   =  605.392                                                            
   DEXC   =    0.000                                                            
   RMAX   =    1.553    core radius for proj-oper                               
   RAUG   =    1.300    factor for augmentation sphere                          
   RDEP   =    1.550    radius for radial grids                                 
   RDEPT  =    1.329    core radius for aug-charge                              
                                                                                
   Atomic configuration                                                         
    4 entries                                                                   
     n  l   j            E        occ.                                          
     1  0  0.50      -514.6923   2.0000                                         
     2  0  0.50       -23.9615   2.0000                                         
     2  1  0.50        -9.0305   4.0000                                         
     3  2  1.50        -9.5241   0.0000                                         
   Description                                                                  
     l       E           TYP  RCUT    TYP  RCUT                                 
     0    -23.9615318     23  1.200                                             
     0     -9.5240782     23  1.200                                             
     1     -9.0304911     23  1.520                                             
     1      8.1634956     23  1.520                                             
     2     -9.5240782      7  1.500                                             
  local pseudopotential read in
  partial core-charges read in
  partial kinetic energy density read in
  kinetic energy density of atom read in
  atomic valenz-charges read in
  non local Contribution for L=           0  read in
    real space projection operators read in
  non local Contribution for L=           0  read in
    real space projection operators read in
  non local Contribution for L=           1  read in
    real space projection operators read in
  non local Contribution for L=           1  read in
    real space projection operators read in
    PAW grid and wavefunctions read in
 
   number of l-projection  operators is LMAX  =           4
   number of lm-projection operators is LMMAX =           8
 
 POTCAR:    PAW_PBE F 08Apr2002                   
   VRHFIN =F: s2p5                                                              
   LEXCH  = PE                                                                  
   EATOM  =   659.6475 eV,   48.4827 Ry                                         
                                                                                
   TITEL  = PAW_PBE F 08Apr2002                                                 
   LULTRA =        F    use ultrasoft PP ?                                      
   IUNSCR =        1    unscreen: 0-lin 1-nonlin 2-no                           
   RPACOR =    1.200    partial core radius                                     
   POMASS =   18.998; ZVAL   =    7.000    mass and valenz                      
   RCORE  =    1.520    outmost cutoff radius                                   
   RWIGS  =    1.500; RWIGS  =    0.794    wigner-seitz radius (au A)           
   ENMAX  =  400.000; ENMIN  =  300.000 eV                                      
   ICORE  =        2    local potential                                         
   LCOR   =        T    correct aug charges                                     
   LPAW   =        T    paw PP                                                  
   EAUG   =  613.614                                                            
   RMAX   =    1.555    core radius for proj-oper                               
   RAUG   =    1.300    factor for augmentation sphere                          
   RDEP   =    1.539    radius for radial grids                                 
   RDEPT  =    1.299    core radius for aug-charge                              
                                                                                
   Atomic configuration                                                         
    4 entries                                                                   
     n  l   j            E        occ.                                          
     1  0  0.50      -663.3661   2.0000                                         
     2  0  0.50       -29.8995   2.0000                                         
     2  1  0.50       -11.1114   5.0000                                         
     3  2  1.50       -10.8847   0.0000                                         
   Description                                                                  
     l       E           TYP  RCUT    TYP  RCUT                                 
     0    -29.8995018     23  1.200                                             
     0     -9.5240782     23  1.200                                             
     1    -11.1113914     23  1.520                                             
     1      1.3605826     23  1.520                                             
     2    -10.8846608      7  1.500                                             
  local pseudopotential read in
  partial core-charges read in
  partial kinetic energy density read in
  atomic valenz-charges read in
  non local Contribution for L=           0  read in
    real space projection operators read in
  non local Contribution for L=           0  read in
    real space projection operators read in
  non local Contribution for L=           1  read in
    real space projection operators read in
  non local Contribution for L=           1  read in
    real space projection operators read in
    PAW grid and wavefunctions read in
 
   number of l-projection  operators is LMAX  =           4
   number of lm-projection operators is LMMAX =           8
 
 Optimization of the real space projectors (new method)

 maximal supplied QI-value         = 22.11
 optimisation between [QCUT,QGAM] = [ 11.28, 22.77] = [ 35.61,145.23] Ry 
 Optimized for a Real-space Cutoff    1.31 Angstroem

   l    n(q)    QCUT    max X(q) W(low)/X(q) W(high)/X(q)  e(spline) 
   0      9    11.276    10.506    0.19E-04    0.17E-04    0.32E-07
   0      9    11.276     8.367    0.38E-04    0.40E-04    0.65E-07
   1      8    11.276     8.983    0.55E-04    0.98E-04    0.20E-06
 Optimization of the real space projectors (new method)

 maximal supplied QI-value         = 15.12
 optimisation between [QCUT,QGAM] = [ 11.34, 22.83] = [ 36.00,145.93] Ry 
 Optimized for a Real-space Cutoff    1.56 Angstroem

   l    n(q)    QCUT    max X(q) W(low)/X(q) W(high)/X(q)  e(spline) 
   1     10    11.338     4.216    0.27E-04    0.12E-04    0.66E-07
   1     10    11.338     5.422    0.81E-04    0.24E-04    0.19E-06
   2     10    11.338    72.084    0.64E-04    0.21E-03    0.51E-06
   2     10    11.338    65.965    0.63E-04    0.21E-03    0.50E-06
   0     11    11.338    41.531    0.33E-04    0.54E-04    0.13E-06
   0     11    11.338    16.290    0.26E-04    0.41E-04    0.11E-06
 Optimization of the real space projectors (new method)

 maximal supplied QI-value         = 24.76
 optimisation between [QCUT,QGAM] = [ 11.39, 22.77] = [ 36.31,145.25] Ry 
 Optimized for a Real-space Cutoff    1.20 Angstroem

   l    n(q)    QCUT    max X(q) W(low)/X(q) W(high)/X(q)  e(spline) 
   0      8    11.387    20.381    0.89E-04    0.31E-03    0.27E-06
   0      8    11.387    15.268    0.93E-04    0.32E-03    0.29E-06
   1      8    11.387     5.964    0.53E-04    0.28E-03    0.29E-06
   1      8    11.387     5.382    0.37E-04    0.22E-03    0.26E-06
 Optimization of the real space projectors (new method)

 maximal supplied QI-value         = 24.76
 optimisation between [QCUT,QGAM] = [ 11.39, 22.77] = [ 36.31,145.25] Ry 
 Optimized for a Real-space Cutoff    1.20 Angstroem

   l    n(q)    QCUT    max X(q) W(low)/X(q) W(high)/X(q)  e(spline) 
   0      8    11.387    14.049    0.69E-04    0.23E-03    0.18E-06
   0      8    11.387     8.945    0.88E-04    0.30E-03    0.26E-06
   1      8    11.387     7.086    0.62E-04    0.27E-03    0.27E-06
   1      8    11.387     6.747    0.46E-04    0.23E-03    0.25E-06

 ----------------------------------------------------------------------------- 
|                                                                             |
|  ADVICE TO THIS USER RUNNING 'VASP/VAMP'   (HEAR YOUR MASTER'S VOICE ...):  |
|                                                                             |
|      You enforced a specific xc-type in the INCAR file,                     |
|      a different type was found on the POTCAR file                          |
|          I HOPE YOU KNOW, WHAT YOU ARE  DOING                               |
|                                                                             |
 ----------------------------------------------------------------------------- 

  PAW_PBE Li_sv 10Sep2004               :
 energy of atom  1       EATOM= -202.7858
 kinetic energy error for atom=    0.0143 (will be added to EATOM!!)
  PAW_PBE Ti_pv 07Sep2000               :
 energy of atom  2       EATOM=-1042.5995
 kinetic energy error for atom=    0.0024 (will be added to EATOM!!)
  PAW_PBE O 08Apr2002                   :
 energy of atom  3       EATOM= -432.3788
 kinetic energy error for atom=    0.0224 (will be added to EATOM!!)
  PAW_PBE F 08Apr2002                   :
 energy of atom  4       EATOM= -659.6475
 kinetic energy error for atom=    0.0354 (will be added to EATOM!!)
 
 
 POSCAR: config 64                               
  positions in direct lattice
  velocities in cartesian coordinates
 exchange correlation table for  LEXCH =       14
   RHO(1)=    0.500       N(1)  =     2000
   RHO(2)=  100.500       N(2)  =     4000

 VTST: version 3.2, (02/03/18)

 CHAIN: initializing optimizer
 
 OPT: Using VASP QUASI-newton optimizer
 CHAIN: Read ICHAIN            0
 
 POSCAR: config 64                               
  positions in direct lattice
  velocities in cartesian coordinates
 


--------------------------------------------------------------------------------------------------------


 ion  position               nearest neighbor table
   1  0.877  0.804  0.877-  88 1.96 148 1.96 111 1.97 203 1.97  65 2.85  29 2.88
   2  0.995  0.996  0.995- 118 1.87  68 1.88 103 1.89 171 2.02 212 2.03 130 2.04
   3  0.999  0.992  0.493- 119 1.81  67 1.82 172 1.94 193 1.95 131 2.01 213 2.07
   4  0.006  0.496  0.998-  89 1.84 117 1.85 138 1.93 132 1.98 194 2.02 214 2.04
   5  0.994  0.503  0.507-  66 1.83 104 1.83 215 1.93 223 2.00 173 2.01 137 2.03
   6  0.494  0.994  0.000- 101 1.83 121 1.84 140 1.95 133 1.96 216 2.02 174 2.03
   7  0.501  0.008  0.500- 112 1.77 191 1.91 134 1.91 139 1.92 175 1.93 225 2.02
   8  0.504  0.496  0.996-  70 1.88 120 1.88  90 1.88 192 2.03 135 2.04 217 2.05
   9  0.492  0.499  0.495- 102 1.81  69 1.86 224 1.97 218 1.98 136 2.01 176 2.06
  10  0.007  0.003  0.256-  91 1.83  67 1.86 219 1.94 227 1.97 130 2.00 197 2.06
  11  0.001  0.008  0.757-  68 1.80 113 1.83 177 1.94 198 1.99 228 2.04 131 2.06
  12  0.994  0.494  0.252- 107 1.82 122 1.86 137 1.93 132 1.97 220 2.01 178 2.03
  13  0.992  0.500  0.742- 108 1.81  66 1.83 226 1.93 221 1.98 138 2.02 179 2.04
  14  0.506  0.008  0.251- 114 1.82  92 1.84 133 1.92 139 1.97 195 2.00 231 2.05
  15  0.492  0.005  0.752- 105 1.81 115 1.83 140 1.93 134 1.99 232 2.01 180 2.02
  16  0.493  0.497  0.257-  69 1.82 106 1.84 229 1.96 222 2.00 135 2.02 181 2.04
  17  0.500  0.504  0.758-  70 1.80 116 1.87 182 1.94 196 1.97 230 2.03 136 2.07
  18  0.996  0.258  0.001- 117 1.82 110 1.87 141 1.96 146 1.96 183 2.00 212 2.02
  19  0.999  0.249  0.491-  74 1.77 213 1.91 184 1.93 202 1.93 223 1.94 142 2.01
  20  0.002  0.758  0.011-  71 1.81 118 1.81 185 1.94 203 1.98 214 2.03 148 2.09
  21  0.997  0.757  0.505- 119 1.83  72 1.83 204 1.94 186 1.96 147 2.00 215 2.02
  22  0.495  0.258  0.001- 120 1.80 109 1.85 150 1.95 143 1.97 187 2.03 216 2.06
  23  0.509  0.246  0.499-  93 1.80 112 1.90 144 1.92 149 1.94 224 1.97 199 2.00
  24  0.507  0.756  0.999-  94 1.81 121 1.84 152 1.94 145 1.99 200 2.01 217 2.01
  25  0.507  0.753  0.509-  73 1.79  95 1.83 218 1.96 225 1.96 201 2.01 151 2.07
  26  1.000  0.259  0.255- 122 1.79  74 1.88 209 1.94 188 1.95 141 1.99 219 2.02
  27  0.006  0.243  0.747- 113 1.81  96 1.83 142 1.96 146 1.97 226 2.04 210 2.05
  28  0.008  0.749  0.246-  97 1.82  71 1.83 220 1.94 227 1.97 147 2.00 211 2.05
  29  0.993  0.752  0.740- 111 1.80  72 1.82 228 1.94 221 1.97 189 2.01 148 2.10   1 2.88
  30  0.508  0.242  0.252-  98 1.82 114 1.82 143 1.92 149 1.96 229 2.01 205 2.02
  31  0.507  0.243  0.750-  99 1.83 115 1.84 150 1.93 144 1.97 230 2.02 206 2.02
  32  0.507  0.751  0.252- 100 1.79 151 1.92 231 1.93 145 1.94 222 1.94 207 2.01
  33  0.499  0.742  0.744- 116 1.80  73 1.84 190 1.93 208 1.96 152 2.02 232 2.07
  34  0.256  0.998  0.006-  75 1.84 101 1.85 246 1.93 233 1.96 171 2.02 157 2.04
  35  0.250  0.994  0.507- 128 1.83  76 1.84 172 1.94 191 1.98 234 2.02 156 2.02
  36  0.244  0.508  0.998- 123 1.82  89 1.84 159 1.93 153 1.97 192 2.01 245 2.03
  37  0.254  0.494  0.507-  77 1.85 102 1.87 127 1.88 173 2.03 158 2.05 235 2.05
  38  0.757  1.000  0.995- 103 1.80  81 1.87 236 1.95 249 1.96 174 2.04 154 2.05
  39  0.751  0.007  0.494-  80 1.83 124 1.84 193 1.93 155 1.98 175 1.99 250 2.02
  40  0.742  0.503  0.004-  90 1.80  78 1.87 237 1.95 247 1.96 161 2.01 194 2.06
  41  0.755  0.499  0.505-  79 1.83 104 1.86 248 1.95 238 1.98 176 2.02 160 2.03
  42  0.245  0.002  0.244-  75 1.83  91 1.85 239 1.93 252 1.97 156 2.04 195 2.05
  43  0.257  0.998  0.744- 105 1.83  76 1.84 253 1.93 240 1.97 177 2.02 157 2.02
  44  0.255  0.492  0.252- 129 1.83 106 1.83 158 1.93 153 1.97 178 2.04 241 2.04
  45  0.247  0.506  0.741-  77 1.79 125 1.83 179 1.95 196 1.97 251 2.02 159 2.06
  46  0.745  0.000  0.256-  92 1.85  80 1.85 256 1.95 242 1.96 154 2.00 197 2.00
  47  0.749  0.005  0.757-  81 1.83 126 1.85 180 1.94 257 1.95 198 1.98 155 2.08
  48  0.756  0.500  0.242-  78 1.81 107 1.86 243 1.95 254 1.96 181 2.02 160 2.04
  49  0.756  0.498  0.742- 108 1.83  79 1.84 244 1.93 255 1.94 182 2.03 161 2.04
  50  0.257  0.251  0.006- 109 1.83  82 1.86 245 1.93 233 1.97 168 2.02 183 2.05
  51  0.253  0.257  0.505- 127 1.80  83 1.85 199 1.96 184 2.01 167 2.03 234 2.05
  52  0.254  0.742  0.994- 123 1.81  86 1.83 200 1.92 185 1.96 162 2.04 246 2.04
  53  0.252  0.755  0.493-  85 1.83 128 1.86 201 1.95 186 1.97 235 2.00 163 2.04
  54  0.757  0.251  0.007- 110 1.81  84 1.85 247 1.94 236 1.94 170 2.02 187 2.03
  55  0.743  0.243  0.497- 124 1.82  93 1.84 169 1.93 164 1.95 248 2.01 202 2.03
  56  0.740  0.751  0.994-  88 1.78  94 1.83 237 1.96 249 1.97 165 2.06 203 2.08
  57  0.741  0.753  0.492-  95 1.82  87 1.85 250 1.95 238 1.97 166 1.97 204 2.03
  58  0.251  0.258  0.244- 129 1.82  82 1.82 205 1.96 188 1.99 167 2.03 239 2.04
  59  0.244  0.251  0.744-  83 1.83  96 1.85 251 1.94 240 1.97 168 2.03 206 2.04
  60  0.245  0.748  0.256-  85 1.84  97 1.84 241 1.93 252 1.97 162 2.03 207 2.04
  61  0.248  0.742  0.757- 125 1.81  86 1.84 189 1.93 208 1.97 163 2.04 253 2.04
  62  0.742  0.250  0.242-  84 1.79  98 1.83 254 1.93 242 1.94 209 2.04 169 2.05
  63  0.745  0.241  0.751- 126 1.81  99 1.85 170 1.94 164 1.99 210 2.02 255 2.03
  64  0.746  0.751  0.255-  87 1.81 100 1.90 243 1.94 256 1.95 211 1.98 165 2.00
  65  0.753  0.752  0.751- 111 1.93 190 2.00 257 2.01  88 2.02 244 2.03 166 2.05   1 2.85
  66  0.008  0.504  0.625-   5 1.83  13 1.83
  67  0.994  0.006  0.376-   3 1.82  10 1.86
  68  0.997  0.999  0.873-  11 1.80   2 1.88
  69  0.499  0.493  0.375-  16 1.82   9 1.86
  70  0.494  0.497  0.875-  17 1.80   8 1.88
  71  0.998  0.745  0.128-  20 1.81  28 1.83
  72  0.998  0.744  0.623-  29 1.82  21 1.83
  73  0.502  0.752  0.625-  25 1.79  33 1.84
  74  0.994  0.248  0.376-  19 1.77  26 1.88
  75  0.253  0.003  0.126-  42 1.83  34 1.84
  76  0.252  0.003  0.625-  35 1.84  43 1.84
  77  0.239  0.496  0.626-  45 1.79  37 1.85
  78  0.750  0.500  0.125-  48 1.81  40 1.87
  79  0.745  0.500  0.623-  41 1.83  49 1.84
  80  0.753  0.993  0.376-  39 1.83  46 1.85
  81  0.750  0.990  0.875-  47 1.83  38 1.87
  82  0.246  0.250  0.126-  58 1.82  50 1.86
  83  0.252  0.249  0.625-  59 1.83  51 1.85
  84  0.743  0.249  0.126-  62 1.79  54 1.85
  85  0.254  0.746  0.375-  53 1.83  60 1.84
  86  0.252  0.753  0.876-  52 1.83  61 1.84
  87  0.751  0.760  0.372-  64 1.81  57 1.85
  88  0.756  0.768  0.881-  56 1.78   1 1.96  65 2.02
  89  0.124  0.506  0.995-   4 1.84  36 1.84
  90  0.626  0.510  0.997-  40 1.80   8 1.88
  91  0.125  0.004  0.254-  10 1.83  42 1.85
  92  0.625  0.002  0.252-  14 1.84  46 1.85
  93  0.624  0.258  0.494-  23 1.80  55 1.84
  94  0.623  0.739  0.001-  24 1.81  56 1.83
  95  0.624  0.763  0.495-  57 1.82  25 1.83
  96  0.125  0.248  0.750-  27 1.83  59 1.85
  97  0.126  0.751  0.252-  28 1.82  60 1.84
  98  0.626  0.244  0.262-  30 1.82  62 1.83
  99  0.625  0.248  0.748-  31 1.83  63 1.85
 100  0.623  0.753  0.249-  32 1.79  64 1.90
 101  0.376  0.999  0.995-   6 1.83  34 1.85
 102  0.375  0.506  0.504-   9 1.81  37 1.87
 103  0.873  0.998  0.003-  38 1.80   2 1.89
 104  0.875  0.504  0.500-   5 1.83  41 1.86
 105  0.376  0.992  0.754-  15 1.81  43 1.83
 106  0.374  0.496  0.248-  44 1.83  16 1.84
 107  0.876  0.497  0.252-  12 1.82  48 1.86
 108  0.875  0.502  0.746-  13 1.81  49 1.83
 109  0.376  0.249  0.004-  50 1.83  22 1.85
 110  0.875  0.250  0.005-  54 1.81  18 1.87
 111  0.878  0.762  0.757-  29 1.80  65 1.93   1 1.97
 112  0.511  0.123  0.494-   7 1.77  23 1.90
 113  0.992  0.126  0.746-  27 1.81  11 1.83
 114  0.494  0.125  0.263-  14 1.82  30 1.82
 115  0.496  0.124  0.748-  15 1.83  31 1.84
 116  0.496  0.625  0.750-  33 1.80  17 1.87
 117  0.002  0.376  0.005-  18 1.82   4 1.85
 118  0.004  0.875  0.003-  20 1.81   2 1.87
 119  0.995  0.875  0.499-   3 1.81  21 1.83
 120  0.505  0.374  0.007-  22 1.80   8 1.88
 121  0.506  0.876  0.005-   6 1.84  24 1.84
 122  0.008  0.374  0.247-  26 1.79  12 1.86
 123  0.258  0.625  0.002-  52 1.81  36 1.82
 124  0.742  0.125  0.495-  55 1.82  39 1.84
 125  0.253  0.625  0.750-  61 1.81  45 1.83
 126  0.756  0.124  0.752-  63 1.81  47 1.85
 127  0.253  0.373  0.494-  51 1.80  37 1.88
 128  0.253  0.876  0.500-  35 1.83  53 1.86
 129  0.242  0.374  0.256-  58 1.82  44 1.83
 130  0.002  0.003  0.127-  10 2.00   2 2.04
 131  0.005  1.000  0.624-   3 2.01  11 2.06
 132  0.001  0.510  0.125-  12 1.97   4 1.98
 133  0.497  0.008  0.127-  14 1.92   6 1.96
 134  0.501  0.996  0.623-   7 1.91  15 1.99
 135  0.502  0.507  0.127-  16 2.02   8 2.04
 136  0.507  0.501  0.624-   9 2.01  17 2.07
 137  0.003  0.496  0.376-  12 1.93   5 2.03
 138  0.995  0.499  0.873-   4 1.93  13 2.02
 139  0.500  0.988  0.377-   7 1.92  14 1.97
 140  0.512  0.999  0.875-  15 1.93   6 1.95
 141  0.008  0.245  0.127-  18 1.96  26 1.99
 142  0.000  0.257  0.621-  27 1.96  19 2.01
 143  0.509  0.239  0.127-  30 1.92  22 1.97
 144  0.497  0.247  0.623-  23 1.92  31 1.97
 145  0.495  0.745  0.127-  32 1.94  24 1.99
 146  0.996  0.252  0.874-  18 1.96  27 1.97
 147  0.996  0.751  0.375-  21 2.00  28 2.00
 148  0.996  0.758  0.876-   1 1.96  20 2.09  29 2.10
 149  0.491  0.262  0.376-  23 1.94  30 1.96
 150  0.500  0.252  0.875-  31 1.93  22 1.95
 151  0.493  0.755  0.375-  32 1.92  25 2.07
 152  0.494  0.754  0.874-  24 1.94  33 2.02
 153  0.244  0.495  0.125-  44 1.97  36 1.97
 154  0.748  0.013  0.127-  46 2.00  38 2.05
 155  0.745  0.005  0.622-  39 1.98  47 2.08
 156  0.255  0.001  0.376-  35 2.02  42 2.04
 157  0.245  0.995  0.875-  43 2.02  34 2.04
 158  0.248  0.511  0.375-  44 1.93  37 2.05
 159  0.259  0.498  0.874-  36 1.93  45 2.06
 160  0.747  0.499  0.374-  41 2.03  48 2.04
 161  0.753  0.496  0.874-  40 2.01  49 2.04
 162  0.252  0.755  0.125-  60 2.03  52 2.04
 163  0.248  0.751  0.625-  61 2.04  53 2.04
 164  0.751  0.253  0.623-  55 1.95  63 1.99
 165  0.755  0.741  0.126-  64 2.00  56 2.06
 166  0.750  0.741  0.618-  57 1.97  65 2.05
 167  0.253  0.243  0.374-  58 2.03  51 2.03
 168  0.252  0.251  0.875-  50 2.02  59 2.03
 169  0.763  0.252  0.374-  55 1.93  62 2.05
 170  0.753  0.254  0.876-  63 1.94  54 2.02
 171  0.126  0.004  0.000-  34 2.02   2 2.02
 172  0.125  0.003  0.497-   3 1.94  35 1.94
 173  0.123  0.498  0.492-   5 2.01  37 2.03
 174  0.625  0.004  0.005-   6 2.03  38 2.04
 175  0.624  0.983  0.500-   7 1.93  39 1.99
 176  0.625  0.493  0.497-  41 2.02   9 2.06
 177  0.127  0.007  0.750-  11 1.94  43 2.02
 178  0.124  0.508  0.250-  12 2.03  44 2.04
 179  0.123  0.499  0.763-  45 1.95  13 2.04
 180  0.623  0.002  0.745-  47 1.94  15 2.02
 181  0.625  0.501  0.250-  48 2.02  16 2.04
 182  0.626  0.495  0.755-  17 1.94  49 2.03
 183  0.125  0.248  0.995-  18 2.00  50 2.05
 184  0.124  0.248  0.498-  19 1.93  51 2.01
 185  0.127  0.743  0.001-  20 1.94  52 1.96
 186  0.124  0.752  0.498-  21 1.96  53 1.97
 187  0.626  0.247  0.994-  54 2.03  22 2.03
 188  0.125  0.237  0.257-  26 1.95  58 1.99
 189  0.123  0.747  0.753-  61 1.93  29 2.01
 190  0.624  0.749  0.754-  33 1.93  65 2.00
 191  0.378  0.008  0.499-   7 1.91  35 1.98
 192  0.373  0.494  0.008-  36 2.01   8 2.03
 193  0.875  0.009  0.510-  39 1.93   3 1.95
 194  0.875  0.498  1.000-   4 2.02  40 2.06
 195  0.377  0.995  0.254-  14 2.00  42 2.05
 196  0.374  0.494  0.741-  17 1.97  45 1.97
 197  0.874  0.998  0.245-  46 2.00  10 2.06
 198  0.875  0.988  0.741-  47 1.98  11 1.99
 199  0.379  0.241  0.499-  51 1.96  23 2.00
 200  0.377  0.759  0.003-  52 1.92  24 2.01
 201  0.377  0.743  0.502-  53 1.95  25 2.01
 202  0.874  0.248  0.505-  19 1.93  55 2.03
 203  0.875  0.761  0.997-   1 1.97  20 1.98  56 2.08
 204  0.873  0.742  0.498-  21 1.94  57 2.03
 205  0.378  0.257  0.246-  58 1.96  30 2.02
 206  0.376  0.253  0.752-  31 2.02  59 2.04
 207  0.377  0.750  0.248-  32 2.01  60 2.04
 208  0.374  0.760  0.747-  33 1.96  61 1.97
 209  0.874  0.256  0.244-  26 1.94  62 2.04
 210  0.875  0.258  0.746-  63 2.02  27 2.05
 211  0.875  0.750  0.251-  64 1.98  28 2.05
 212  0.002  0.127  0.000-  18 2.02   2 2.03
 213  0.000  0.126  0.508-  19 1.91   3 2.07
 214  0.993  0.627  0.994-  20 2.03   4 2.04
 215  0.004  0.627  0.491-   5 1.93  21 2.02
 216  0.503  0.125  0.997-   6 2.02  22 2.06
 217  0.487  0.627  0.999-  24 2.01   8 2.05
 218  0.509  0.627  0.496-  25 1.96   9 1.98
 219  0.991  0.128  0.247-  10 1.94  26 2.02
 220  0.998  0.624  0.259-  28 1.94  12 2.01
 221  0.002  0.626  0.758-  29 1.97  13 1.98
 222  0.500  0.626  0.256-  32 1.94  16 2.00
 223  0.999  0.374  0.499-  19 1.94   5 2.00
 224  0.492  0.372  0.507-  23 1.97   9 1.97
 225  0.487  0.878  0.500-  25 1.96   7 2.02
 226  0.001  0.375  0.750-  13 1.93  27 2.04
 227  0.997  0.876  0.252-  10 1.97  28 1.97
 228  0.011  0.877  0.745-  29 1.94  11 2.04
 229  0.505  0.372  0.241-  16 1.96  30 2.01
 230  0.499  0.373  0.744-  31 2.02  17 2.03
 231  0.497  0.876  0.245-  32 1.93  14 2.05
 232  0.506  0.875  0.751-  15 2.01  33 2.07
 233  0.247  0.125  0.994-  34 1.96  50 1.97
 234  0.248  0.124  0.497-  35 2.02  51 2.05
 235  0.244  0.627  0.505-  53 2.00  37 2.05
 236  0.747  0.126  0.993-  54 1.94  38 1.95
 237  0.763  0.627  0.994-  40 1.95  56 1.96
 238  0.741  0.626  0.492-  57 1.97  41 1.98
 239  0.261  0.126  0.254-  42 1.93  58 2.04
 240  0.256  0.125  0.757-  43 1.97  59 1.97
 241  0.252  0.624  0.242-  60 1.93  44 2.04
 242  0.760  0.126  0.257-  62 1.94  46 1.96
 243  0.749  0.626  0.255-  64 1.94  48 1.95
 244  0.745  0.622  0.757-  49 1.93  65 2.03
 245  0.247  0.376  0.998-  50 1.93  36 2.03
 246  0.244  0.874  0.003-  34 1.93  52 2.04
 247  0.746  0.375  0.998-  54 1.94  40 1.96
 248  0.756  0.373  0.496-  41 1.95  55 2.01
 249  0.743  0.876  0.021-  38 1.96  56 1.97
 250  0.762  0.877  0.509-  57 1.95  39 2.02
 251  0.250  0.376  0.756-  59 1.94  45 2.02
 252  0.254  0.876  0.252-  42 1.97  60 1.97
 253  0.241  0.874  0.747-  43 1.93  61 2.04
 254  0.746  0.374  0.255-  62 1.93  48 1.96
 255  0.750  0.373  0.750-  49 1.94  63 2.03
 256  0.753  0.876  0.235-  46 1.95  64 1.95
 257  0.742  0.881  0.734-  47 1.95  65 2.01
 

IMPORTANT INFORMATION: All symmetrisations will be switched off!
NOSYMM: (Re-)initialisation of all symmetry stuff for point group C_1.

 
 
 KPOINTS: Title                                   

Automatic generation of k-mesh.
Space group operators:
 irot       det(A)        alpha          n_x          n_y          n_z        tau_x        tau_y        tau_z
    1     1.000000     0.000001     1.000000     0.000000     0.000000     0.000000     0.000000     0.000000
 
 Subroutine IBZKPT returns following result:
 ===========================================
 
 Found      4 irreducible k-points:
 
 Following reciprocal coordinates:
            Coordinates               Weight
  0.250000  0.250000  0.250000      2.000000
 -0.250000  0.250000  0.250000      2.000000
  0.250000 -0.250000  0.250000      2.000000
 -0.250000 -0.250000  0.250000      2.000000
 
 Following cartesian coordinates:
            Coordinates               Weight
  0.016206  0.016206  0.016206      2.000000
 -0.016206  0.016206  0.016206      2.000000
  0.016206 -0.016206  0.016206      2.000000
 -0.016206 -0.016206  0.016206      2.000000
 


--------------------------------------------------------------------------------------------------------




 Dimension of arrays:
   k-points           NKPTS =      4   k-points in BZ     NKDIM =      4   number of bands    NBANDS=   1164
   number of dos      NEDOS =   3001   number of ions     NIONS =    257
   non local maximal  LDIM  =      6   non local SUM 2l+1 LMDIM =     18
   total plane-waves  NPLWV = ******
   max r-space proj   IRMAX =   7595   max aug-charges    IRDMAX= 146383
   dimension x,y,z NGX =   120 NGY =  120 NGZ =  120
   dimension x,y,z NGXF=   240 NGYF=  240 NGZF=  240
   support grid    NGXF=   480 NGYF=  480 NGZF=  480
   ions per type =               1  64  64 128
   NGX,Y,Z   is equivalent  to a cutoff of  12.93, 12.93, 12.93 a.u.
   NGXF,Y,Z  is equivalent  to a cutoff of  25.86, 25.86, 25.86 a.u.

 SYSTEM =  LTO                                     
 POSCAR =  config 64                               

 Startparameter for this run:
   NWRITE =      2    write-flag & timer
   PREC   = accura    normal or accurate (medium, high low for compatibility)
   ISTART =      1    job   : 0-new  1-cont  2-samecut
   ICHARG =      0    charge: 1-file 2-atom 10-const
   ISPIN  =      2    spin polarized calculation?
   LNONCOLLINEAR =      F non collinear calculations
   LSORBIT =      F    spin-orbit coupling
   INIWAV =      1    electr: 0-lowe 1-rand  2-diag
   LASPH  =      T    aspherical Exc in radial PAW
   METAGGA=      F    non-selfconsistent MetaGGA calc.

 Electronic Relaxation 1
   ENCUT  =  500.0 eV  36.75 Ry    6.06 a.u.  28.13 28.13 28.13*2*pi/ulx,y,z
   ENINI  =  500.0     initial cutoff
   ENAUG  =  628.9 eV  augmentation charge cutoff
   NELM   =     60;   NELMIN=  2; NELMDL=  0     # of ELM steps 
   EDIFF  = 0.1E-05   stopping-criterion for ELM
   LREAL  =      T    real-space projection
   NLSPLINE    = F    spline interpolate recip. space projectors
   LCOMPAT=      F    compatible to vasp.4.4
   GGA_COMPAT  = T    GGA compatible to vasp.4.4-vasp.4.6
   LMAXPAW     = -100 max onsite density
   LMAXMIX     =    4 max onsite mixed and CHGCAR
   VOSKOWN=      0    Vosko Wilk Nusair interpolation
   ROPT   =   -0.00010  -0.00010  -0.00010  -0.00010
 Ionic relaxation
   EDIFFG = -.5E-01   stopping-criterion for IOM
   NSW    =    100    number of steps for IOM
   NBLOCK =      1;   KBLOCK =    100    inner block; outer block 
   IBRION =      1    ionic relax: 0-MD 1-quasi-New 2-CG
   NFREE  =      0    steps in history (QN), initial steepest desc. (CG)
   ISIF   =      2    stress and relaxation
   IWAVPR =     11    prediction:  0-non 1-charg 2-wave 3-comb
   ISYM   =      0    0-nonsym 1-usesym 2-fastsym
   LCORR  =      T    Harris-Foulkes like correction to forces

   POTIM  = 0.5000    time-step for ionic-motion
   TEIN   =    0.0    initial temperature
   TEBEG  =    0.0;   TEEND  =   0.0 temperature during run
   SMASS  =  -3.00    Nose mass-parameter (am)
   estimated Nose-frequenzy (Omega)   =  0.10E-29 period in steps =****** mass=  -0.544E-26a.u.
   SCALEE = 1.0000    scale energy and forces
   NPACO  =    256;   APACO  = 16.0  distance and # of slots for P.C.
   PSTRESS=    0.0 pullay stress

  Mass of Ions in am
   POMASS =   7.01 47.88 16.00 19.00
  Ionic Valenz
   ZVAL   =   3.00 10.00  6.00  7.00
  Atomic Wigner-Seitz radii
   RWIGS  =  -1.00 -1.00 -1.00 -1.00
  virtual crystal weights 
   VCA    =   1.00  1.00  1.00  1.00
   NELECT =    1923.0000    total number of electrons
   NUPDOWN=       1.0000    fix difference up-down

 DOS related values:
   EMIN   =  10.00;   EMAX   =-10.00  energy-range for DOS
   EFERMI =   0.00
   ISMEAR =     0;   SIGMA  =   0.01  broadening in eV -4-tet -1-fermi 0-gaus

 Electronic relaxation 2 (details)
   IALGO  =     38    algorithm
   LDIAG  =      T    sub-space diagonalisation (order eigenvalues)
   LSUBROT=      F    optimize rotation matrix (better conditioning)
   TURBO    =      0    0=normal 1=particle mesh
   IRESTART =      0    0=no restart 2=restart with 2 vectors
   NREBOOT  =      0    no. of reboots
   NMIN     =      0    reboot dimension
   EREF     =   0.00    reference energy to select bands
   IMIX   =      4    mixing-type and parameters
     AMIX     =   0.40;   BMIX     =  1.00
     AMIX_MAG =   1.60;   BMIX_MAG =  1.00
     AMIN     =   0.10
     WC   =   100.;   INIMIX=   1;  MIXPRE=   1;  MAXMIX= -45

 Intra band minimization:
   WEIMIN = 0.0010     energy-eigenvalue tresh-hold
   EBREAK =  0.21E-09  absolut break condition
   DEPER  =   0.30     relativ break condition  

   TIME   =   0.40     timestep for ELM

  volume/ion in A,a.u.               =      14.28        96.39
  Fermi-wavevector in a.u.,A,eV,Ry     =   1.319690  2.493853 23.695660  1.741582
  Thomas-Fermi vector in A             =   2.449570
 
 Write flags
   LWAVE        =      T    write WAVECAR
   LDOWNSAMPLE  =      F    k-point downsampling of WAVECAR
   LCHARG       =      T    write CHGCAR
   LVTOT        =      F    write LOCPOT, total local potential
   LVHAR        =      F    write LOCPOT, Hartree potential only
   LELF         =      F    write electronic localiz. function (ELF)
   LORBIT       =     11    0 simple, 1 ext, 2 COOP (PROOUT), +10 PAW based schemes


 Dipole corrections
   LMONO  =      F    monopole corrections only (constant potential shift)
   LDIPOL =      F    correct potential (dipole corrections)
   IDIPOL =      0    1-x, 2-y, 3-z, 4-all directions 
   EPSILON=  1.0000000 bulk dielectric constant

 LDA+U is selected, type is set to LDAUTYPE =  2
   angular momentum for each species LDAUL =    -1    2   -1   -1
   U (eV)           for each species LDAUU =   0.0  4.2  0.0  0.0
   J (eV)           for each species LDAUJ =   0.0  0.0  0.0  0.0
 Exchange correlation treatment:
   GGA     =    PS    GGA type
   LEXCH   =    14    internal setting for exchange type
   VOSKOWN=      0    Vosko Wilk Nusair interpolation
   LHFCALC =     F    Hartree Fock is set to
   LHFONE  =     F    Hartree Fock one center treatment
   AEXX    =    0.0000 exact exchange contribution

 Linear response parameters
   LEPSILON=     F    determine dielectric tensor
   LRPA    =     F    only Hartree local field effects (RPA)
   LNABLA  =     F    use nabla operator in PAW spheres
   LVEL    =     F    velocity operator in full k-point grid
   LINTERFAST=   F  fast interpolation
   KINTER  =     0    interpolate to denser k-point grid
   CSHIFT  =0.1000    complex shift for real part using Kramers Kronig
   OMEGAMAX=  -1.0    maximum frequency
   DEG_THRESHOLD= 0.2000000E-02 threshold for treating states as degnerate
   RTIME   =   -0.100 relaxation time in fs
  (WPLASMAI=    0.000 imaginary part of plasma frequency in eV, 0.658/RTIME)
   DFIELD  = 0.0000000 0.0000000 0.0000000 field for delta impulse in time
 
 Orbital magnetization related:
   ORBITALMAG=     F  switch on orbital magnetization
   LCHIMAG   =     F  perturbation theory with respect to B field
   DQ        =  0.001000  dq finite difference perturbation B field
   LLRAUG    =     F  two centre corrections for induced B field



--------------------------------------------------------------------------------------------------------


 quasi-Newton-method for relaxation of ions
 charge density and potential will be updated during run
 spin polarized calculation
 Variant of blocked Davidson
 Davidson routine will perform the subspace rotation
 perform sub-space diagonalisation
    after iterative eigenvector-optimisation
 modified Broyden-mixing scheme, WC =      100.0
 initial mixing is a Kerker type mixing with AMIX =  0.4000 and BMIX =      1.0000
 Hartree-type preconditioning will be used
 using additional bands          202
 real space projection scheme for non local part
 use partial core corrections
 calculate Harris-corrections to forces 
   (improved forces if not selfconsistent)
 use gradient corrections 
 use of overlap-Matrix (Vanderbilt PP)
 Gauss-broadening in eV      SIGMA  =   0.01


--------------------------------------------------------------------------------------------------------


  energy-cutoff  :      500.00
  volume of cell :     3671.03
      direct lattice vectors                 reciprocal lattice vectors
    15.426331000  0.000000000  0.000000000     0.064824228  0.000000000  0.000000000
     0.000000000 15.426331000  0.000000000     0.000000000  0.064824228  0.000000000
     0.000000000  0.000000000 15.426331000     0.000000000  0.000000000  0.064824228

  length of vectors
    15.426331000 15.426331000 15.426331000     0.064824228  0.064824228  0.064824228


 
 old parameters found on file WAVECAR:
  energy-cutoff  :      500.00
  volume of cell :     3671.03
      direct lattice vectors                 reciprocal lattice vectors
    15.426331000  0.000000000  0.000000000     0.064824228  0.000000000  0.000000000
     0.000000000 15.426331000  0.000000000     0.000000000  0.064824228  0.000000000
     0.000000000  0.000000000 15.426331000     0.000000000  0.000000000  0.064824228

  length of vectors

 
 k-points in units of 2pi/SCALE and weight: Title                                   
   0.01620606  0.01620606  0.01620606       0.250
  -0.01620606  0.01620606  0.01620606       0.250
   0.01620606 -0.01620606  0.01620606       0.250
  -0.01620606 -0.01620606  0.01620606       0.250
 
 k-points in reciprocal lattice and weights: Title                                   
   0.25000000  0.25000000  0.25000000       0.250
  -0.25000000  0.25000000  0.25000000       0.250
   0.25000000 -0.25000000  0.25000000       0.250
  -0.25000000 -0.25000000  0.25000000       0.250
 
 position of ions in fractional coordinates (direct lattice) 
   0.87745266  0.80449340  0.87690670
   0.99543592  0.99555263  0.99499939
   0.99920628  0.99246818  0.49346209
   0.00588006  0.49566893  0.99777749
   0.99373714  0.50347814  0.50732730
   0.49431432  0.99403071  0.00005258
   0.50125646  0.00817481  0.49962897
   0.50424340  0.49562641  0.99579593
   0.49156778  0.49925949  0.49506372
   0.00691889  0.00328519  0.25638957
   0.00125986  0.00845837  0.75656144
   0.99355854  0.49383885  0.25150325
   0.99222999  0.49954601  0.74200414
   0.50641138  0.00830663  0.25074893
   0.49222242  0.00497853  0.75162824
   0.49278746  0.49668729  0.25713028
   0.50004110  0.50395502  0.75823245
   0.99555534  0.25779981  0.00127485
   0.99869039  0.24863383  0.49111395
   0.00230538  0.75766129  0.01147492
   0.99692038  0.75705867  0.50502213
   0.49518867  0.25811598  0.00105198
   0.50854897  0.24561376  0.49886736
   0.50697447  0.75620024  0.99879282
   0.50679903  0.75296637  0.50872969
   0.99978487  0.25851791  0.25493147
   0.00638632  0.24285510  0.74741136
   0.00765178  0.74867547  0.24619128
   0.99331523  0.75241971  0.74048500
   0.50826186  0.24179615  0.25160440
   0.50672177  0.24264083  0.75019570
   0.50716667  0.75140827  0.25152334
   0.49944739  0.74185492  0.74356475
   0.25634261  0.99849506  0.00632342
   0.24996123  0.99385387  0.50668757
   0.24377597  0.50777645  0.99763390
   0.25403729  0.49438342  0.50659320
   0.75698722  0.99963796  0.99497816
   0.75051303  0.00658445  0.49362451
   0.74178325  0.50254507  0.00422390
   0.75509760  0.49892471  0.50513741
   0.24492296  0.00234958  0.24408887
   0.25720709  0.99764954  0.74437050
   0.25512010  0.49206104  0.25180042
   0.24704018  0.50630352  0.74107808
   0.74515180  0.00001497  0.25584505
   0.74863134  0.00518593  0.75696198
   0.75562153  0.50001732  0.24222917
   0.75645146  0.49817167  0.74227241
   0.25736837  0.25140242  0.00595442
   0.25328141  0.25678822  0.50548197
   0.25371734  0.74238756  0.99400545
   0.25157327  0.75541734  0.49344674
   0.75736014  0.25051281  0.00666639
   0.74287984  0.24291793  0.49673593
   0.74037348  0.75149905  0.99396178
   0.74132499  0.75310516  0.49177461
   0.25131530  0.25756143  0.24363014
   0.24413914  0.25126738  0.74373207
   0.24476253  0.74796079  0.25635998
   0.24809316  0.74175555  0.75710542
   0.74242347  0.24962713  0.24210818
   0.74481792  0.24135887  0.75118756
   0.74611274  0.75119478  0.25526993
   0.75331494  0.75246042  0.75078330
   0.00826374  0.50430688  0.62477906
   0.99412088  0.00604654  0.37631709
   0.99650149  0.99936467  0.87288941
   0.49911679  0.49303039  0.37510432
   0.49368685  0.49650539  0.87452604
   0.99837632  0.74536128  0.12828235
   0.99800745  0.74427750  0.62278059
   0.50196396  0.75204990  0.62468858
   0.99436857  0.24779537  0.37625415
   0.25292373  0.00271348  0.12574239
   0.25193863  0.00306488  0.62531766
   0.23854376  0.49571057  0.62577954
   0.75028804  0.50003040  0.12513686
   0.74498039  0.50036456  0.62340167
   0.75286486  0.99285749  0.37560143
   0.75003861  0.98960724  0.87451210
   0.24581008  0.24950226  0.12573011
   0.25181893  0.24949308  0.62507366
   0.74266135  0.24876009  0.12585021
   0.25385569  0.74624527  0.37502656
   0.25213826  0.75252149  0.87562016
   0.75141648  0.75951104  0.37215893
   0.75605709  0.76792698  0.88090897
   0.12445353  0.50570763  0.99462427
   0.62555735  0.51005977  0.99742128
   0.12546735  0.00373543  0.25380699
   0.62520802  0.00175297  0.25202860
   0.62442878  0.25775283  0.49401065
   0.62286026  0.73927305  0.00077716
   0.62399144  0.76287963  0.49516018
   0.12468646  0.24797037  0.74983541
   0.12568161  0.75085356  0.25198790
   0.62561644  0.24417844  0.26195343
   0.62540593  0.24817230  0.74788428
   0.62303412  0.75276372  0.24921057
   0.37581033  0.99888489  0.99487720
   0.37497827  0.50594764  0.50419245
   0.87332156  0.99820192  0.00250698
   0.87523124  0.50389863  0.49954592
   0.37558170  0.99245806  0.75403643
   0.37381940  0.49561434  0.24833444
   0.87573464  0.49699353  0.25166651
   0.87507480  0.50159376  0.74589024
   0.37588028  0.24949850  0.00376655
   0.87459678  0.24973635  0.00500362
   0.87807349  0.76213191  0.75653335
   0.51068791  0.12257134  0.49436610
   0.99246013  0.12644358  0.74552832
   0.49434115  0.12490463  0.26271228
   0.49643958  0.12365608  0.74807267
   0.49636904  0.62515658  0.75031229
   0.00166549  0.37575758  0.00452417
   0.00428796  0.87494906  0.00321873
   0.99510360  0.87519768  0.49895343
   0.50454456  0.37416049  0.00731907
   0.50571542  0.87553465  0.00470472
   0.00750752  0.37409241  0.24680491
   0.25750647  0.62515028  0.00204159
   0.74172384  0.12524599  0.49514945
   0.25290253  0.62476481  0.75008130
   0.75639570  0.12449097  0.75233732
   0.25317779  0.37316249  0.49375124
   0.25329949  0.87565039  0.49966839
   0.24157186  0.37438783  0.25639345
   0.00175616  0.00317448  0.12711460
   0.00497252  0.99956277  0.62353929
   0.00100312  0.50985072  0.12520118
   0.49710112  0.00752679  0.12658551
   0.50069949  0.99606202  0.62294664
   0.50243034  0.50728152  0.12722643
   0.50728559  0.50073749  0.62433777
   0.00299199  0.49600178  0.37608243
   0.99510217  0.49865215  0.87317341
   0.50044223  0.98838029  0.37687664
   0.51154600  0.99902951  0.87504895
   0.00753229  0.24508629  0.12705326
   0.00015577  0.25717551  0.62130148
   0.50861784  0.23890234  0.12688269
   0.49691013  0.24709417  0.62270550
   0.49537760  0.74539462  0.12670919
   0.99564643  0.25196071  0.87423508
   0.99595425  0.75071926  0.37544266
   0.99565396  0.75816663  0.87626954
   0.49063990  0.26246188  0.37578076
   0.49987120  0.25206803  0.87460699
   0.49295304  0.75510551  0.37529464
   0.49412729  0.75359517  0.87385046
   0.24409404  0.49470161  0.12480203
   0.74792937  0.01320435  0.12701585
   0.74474375  0.00541984  0.62212059
   0.25452797  0.00142146  0.37583352
   0.24507627  0.99527940  0.87466846
   0.24752290  0.51112261  0.37523783
   0.25878556  0.49751351  0.87367311
   0.74655266  0.49893118  0.37406327
   0.75282706  0.49618301  0.87439915
   0.25202956  0.75456012  0.12539352
   0.24817226  0.75134806  0.62542518
   0.75102555  0.25259480  0.62262453
   0.75502883  0.74142848  0.12630958
   0.75014251  0.74102704  0.61832840
   0.25349032  0.24339146  0.37448881
   0.25206399  0.25084418  0.87532729
   0.76278657  0.25225498  0.37366021
   0.75260944  0.25376855  0.87585880
   0.12593832  0.00371166  0.00037404
   0.12467238  0.00290780  0.49659525
   0.12323240  0.49818522  0.49194764
   0.62540880  0.00398551  0.00515163
   0.62398216  0.98324830  0.49974299
   0.62479164  0.49282141  0.49704717
   0.12700673  0.00709459  0.74976162
   0.12403152  0.50827910  0.24972113
   0.12298406  0.49927911  0.76288516
   0.62325986  0.00222468  0.74501159
   0.62495941  0.50108852  0.25009189
   0.62553945  0.49538403  0.75512688
   0.12485634  0.24842929  0.99470435
   0.12364938  0.24809340  0.49754294
   0.12666033  0.74324884  0.00146706
   0.12379294  0.75183625  0.49760140
   0.62630347  0.24717454  0.99405598
   0.12460366  0.23671394  0.25668463
   0.12300587  0.74745232  0.75279593
   0.62379255  0.74933592  0.75443547
   0.37754196  0.00844042  0.49883065
   0.37322219  0.49384724  0.00761448
   0.87462545  0.00851624  0.50988638
   0.87522992  0.49831566  0.99977397
   0.37732332  0.99519233  0.25415207
   0.37415689  0.49399935  0.74053401
   0.87426571  0.99760239  0.24535448
   0.87499085  0.98793482  0.74142867
   0.37892683  0.24072122  0.49883632
   0.37663401  0.75914867  0.00332772
   0.37684084  0.74265002  0.50241696
   0.87434236  0.24768295  0.50533739
   0.87512342  0.76074329  0.99705706
   0.87254712  0.74190163  0.49787989
   0.37816929  0.25745483  0.24625252
   0.37594739  0.25296612  0.75160818
   0.37682187  0.74977993  0.24773587
   0.37392075  0.76011615  0.74734455
   0.87433494  0.25587521  0.24379639
   0.87464931  0.25783100  0.74635812
   0.87460287  0.74966494  0.25077740
   0.00200763  0.12678928  0.00002504
   0.00022470  0.12596027  0.50817391
   0.99324697  0.62737287  0.99389541
   0.00432033  0.62695043  0.49122508
   0.50311156  0.12458204  0.99703079
   0.48699965  0.62718855  0.99885141
   0.50854192  0.62669826  0.49563902
   0.99131042  0.12778520  0.24687325
   0.99792797  0.62374295  0.25850653
   0.00211375  0.62624366  0.75778886
   0.49957180  0.62608446  0.25576303
   0.99941177  0.37419332  0.49935206
   0.49199355  0.37187750  0.50724126
   0.48695277  0.87811503  0.49995242
   0.00068535  0.37495900  0.75013264
   0.99708797  0.87603778  0.25218555
   0.01133873  0.87710388  0.74517251
   0.50502002  0.37159988  0.24058752
   0.49900886  0.37294804  0.74404982
   0.49742713  0.87611027  0.24523490
   0.50580803  0.87542842  0.75135764
   0.24739561  0.12479266  0.99393547
   0.24804488  0.12432865  0.49692097
   0.24407125  0.62658738  0.50496331
   0.74686501  0.12586661  0.99257542
   0.76333775  0.62665840  0.99426706
   0.74139129  0.62567902  0.49166027
   0.26053772  0.12633694  0.25354265
   0.25553887  0.12455241  0.75714938
   0.25237520  0.62381603  0.24156335
   0.76043243  0.12582624  0.25742482
   0.74887943  0.62566488  0.25468097
   0.74456981  0.62157774  0.75654942
   0.24678048  0.37605210  0.99770930
   0.24356108  0.87390093  0.00289866
   0.74619613  0.37541698  0.99758335
   0.75623058  0.37258059  0.49634929
   0.74274137  0.87640041  0.02109388
   0.76198342  0.87677925  0.50852342
   0.24968793  0.37599406  0.75619321
   0.25352329  0.87550710  0.25202983
   0.24084972  0.87364478  0.74699387
   0.74635607  0.37415312  0.25458654
   0.75007826  0.37300760  0.74974699
   0.75281275  0.87581396  0.23491411
   0.74209750  0.88083877  0.73359917
 
 position of ions in cartesian coordinates  (Angst):
  13.53587520 12.41038151 13.52745308
  15.35592406 15.35772437 15.34918999
  15.41408688 15.31014269  7.61230948
   0.09070773  7.64635298 15.39204578
  15.32971803  7.76682049  7.82619884
   7.62545636 15.33424669  0.00081116
   7.73254814  0.12610734  7.70744189
   7.77862566  7.64569711 15.36147767
   7.58308722  7.70174214  7.63701680
   0.10673304  0.05067842  3.95515044
   0.01943507  0.13048159 11.67096718
  15.32696296  7.61812162  3.87977232
  15.30646818  7.70616211 11.44640152
   7.81206960  0.12814081  3.86813605
   7.59318594  0.07680048 11.59486608
   7.60190251  7.66206259  3.96657679
   7.71379948  7.77417700 11.69674472
  15.35776626  3.97690519  0.01966633
  15.40612859  3.83550783  7.57608641
   0.03556362 11.68793378  0.17701584
  15.37882373 11.67863763  7.79063846
   7.63894426  3.98178257  0.01622825
   7.84504472  3.78891915  7.69569298
   7.82075593 11.66539526 15.40770869
   7.81804951 11.61550847  7.84783256
  15.42301229  3.98798283  3.93265724
   0.09851755  3.74636314 11.52981504
   0.11803890 11.54931569  3.79782822
  15.32320960 11.60707550 11.42296668
   7.84061574  3.73002744  3.88133276
   7.81685780  3.74305779 11.57276722
   7.82372092 11.59147276  3.88008224
   7.70464083 11.44409962 11.47047599
   3.95442600 15.40311525  0.09754721
   3.85598464 15.33151880  7.81633011
   3.76056878  7.83312761 15.38983084
   3.91886331  7.62652235  7.81487436
  11.67753545 15.42074612 15.34886239
  11.57766238  0.10157391  7.61481507
  11.44299402  7.75242664  0.06515930
  11.64838552  7.69657765  7.79241692
   3.77826261  0.03624540  3.76539563
   3.96776168 15.39007206 11.48290575
   3.93556711  7.59069644  3.88435669
   3.81092364  7.81040571 11.43211572
  11.49495824  0.00023089  3.94675035
  11.54863479  0.07999981 11.67714598
  11.65646788  7.71343263  3.73670729
  11.66927055  7.68496106 11.45053986
   3.97024960  3.87821701  0.09185489
   3.90720286  3.96130003  7.79773214
   3.91392760 11.45231626 15.33385703
   3.88085256 11.65331796  7.61207273
  11.68328817  3.86449351  0.10283787
  11.45991033  3.74733247  7.66281290
  11.42124644 11.59287302 15.33318347
  11.43592466 11.61764950  7.58627789
   3.87687294  3.97322787  3.75831924
   3.76617118  3.87613371 11.47305705
   3.77578778 11.53829073  3.95469396
   3.82716718 11.44256664 11.67935881
  11.45287018  3.85083070  3.73484094
  11.48980773  3.72328189 11.58806799
  11.50978213 11.58817933  3.93787842
  11.62088559 11.60770357 11.58183177
   0.12747916  7.77960482  9.63804851
  15.33563773  0.09327599  5.80519193
  15.37236184 15.41653022 13.46548101
   7.69954086  7.60564996  5.78648341
   7.61577668  7.65925654 13.49072816
  15.40128360 11.49818982  1.97892597
  15.39559324 11.48147107  9.60721958
   7.74346215 11.60137068  9.63665285
  15.33945863  3.82257347  5.80422101
   3.90168522  0.04185897  1.93974367
   3.88648871  0.04727987  9.64635719
   3.67985497  7.64699537  9.65348225
  11.57419159  7.71363440  1.93040257
  11.49231407  7.71878927  9.61680056
  11.61394259 15.31614831  5.79415205
  11.57034389 15.26600889 13.49051308
   3.79194772  3.84890450  1.93955425
   3.88464218  3.84876289  9.64259322
  11.45653980  3.83745553  1.94140704
   3.91606196 11.51182653  5.78528382
   3.88956825 11.60864561 13.50760647
  11.59159930 11.71646867  5.74104690
  11.66318700 11.84629582 13.58919331
   1.91986130  7.80121329 15.34340318
   9.65005475  7.86835081 15.38655083
   1.93550089  0.05762401  3.91531057
   9.64466590  0.02704187  3.88787662
   9.63264501  3.97618050  7.62077179
   9.60844855 11.40427071  0.01198870
   9.62589854 11.76843369  7.63850486
   1.92345458  3.82527305 11.56720928
   1.93880607 11.58291554  3.88724869
   9.65096633  3.76677739  4.04098027
   9.64771886  3.82838806 11.53711045
   9.61113059 11.61238232  3.84440476
   5.79737448 15.40912888 15.34730498
   5.78453889  7.80491570  7.77783966
  13.47214749 15.39859328  0.03867346
  13.50160675  7.77330701  7.70616064
   5.79384764 15.30998659 11.63201560
   5.76666177  7.64551084  3.83088923
  13.50937239  7.66678677  3.88229083
  13.49919357  7.73775130 11.50634967
   5.79845362  3.84884647  0.05810397
  13.49181945  3.85251557  0.07718747
  13.54545237 11.75689907 11.67053389
   7.87804070  1.89082611  7.62625511
  15.31001850  1.95056056 11.50076670
   7.62587028  1.92682020  4.05268654
   7.65824124  1.90755955 11.54001657
   7.65715312  9.64387228 11.57456574
   0.02569234  5.79656083  0.06979141
   0.06614753 13.49725377  0.04965325
  15.35079745 13.50108913  7.69702084
   7.78327143  5.77192357  0.11290642
   7.80133346 13.50628737  0.07257658
   0.11581352  5.77087331  3.80729416
   3.97238009  9.64377519  0.03149422
  11.44207753  1.93208613  7.63833933
   3.90135816  9.63782883 11.57100244
  11.66841046  1.92043891 11.60580453
   3.90560438  5.75652811  7.61677000
   3.90748175 13.50807280  7.70805005
   3.72656747  5.77543052  3.95521026
   0.02709103  0.04897051  1.96091196
   0.07670774 15.41958609  9.61892345
   0.01547439  7.86512593  1.93139489
   7.66844640  0.11611079  1.95274993
   7.72395607 15.36558243  9.60978113
   7.75065680  7.82549266  1.96263709
   7.82555542  7.72454228  9.63124102
   0.04615540  7.65148768  5.80157210
  15.35077539  7.69237310 13.46986209
   7.71998750 15.24708151  5.81382379
   7.89127785 15.41135995 13.49879469
   0.11619567  3.78078217  1.95996571
   0.00240289  3.96727447  9.58440225
   7.84610717  3.68538650  1.95733432
   7.66550021  3.81175650  9.60606123
   7.64185877 11.49870414  1.95465785
  15.35917136  3.88682925 13.48623972
  15.36391995 11.58084385  5.79170277
  15.35928758 11.69572937 13.51762394
   7.56877349  4.04882382  5.79691845
   7.71117867  3.88848481 13.49197688
   7.60445681 11.64850756  5.78941930
   7.62257110 11.62520852 13.48030638
   3.76547544  7.63143083  1.92523748
  11.53780601  0.20369472  1.95938860
  11.48866367  0.08360827  9.59703814
   3.92643275  0.02192794  5.79773228
   3.78062771 15.35350940 13.49292512
   3.81837023  7.88474649  5.78854295
   3.99211171  7.67480809 13.47757059
  11.51656848  7.69667759  5.77042386
  11.61335935  7.65428329 13.48877075
   3.88789136 11.64009421  1.93436193
   3.82838747 11.59054382  9.64801586
  11.58556879  3.89661102  9.60481211
  11.64732471 11.43752121  1.94849344
  11.57194667 11.43132833  9.53853856
   3.91042553  3.75463722  5.77698841
   3.88842257  3.86960537 13.50308849
  11.76699812  3.89136874  5.76420607
  11.61000228  3.91471772 13.51128770
   1.94276618  0.05725737  0.00577004
   1.92323747  0.04485668  7.66064277
   1.90102373  7.68517011  7.58894708
   9.64776321  0.06148183  0.07947074
   9.62575538 15.16791376  7.70920085
   9.63824258  7.60242620  7.66761412
   1.95924786  0.10944344 11.56607090
   1.91335127  7.84088171  3.85228088
   1.89719278  7.70204479 11.76851898
   9.61461287  0.03431861 11.49279534
   9.64083078  7.72995744  3.85800031
   9.64977856  7.64195798 11.64883726
   1.92607517  3.83235246 15.34463854
   1.90745626  3.82717098  7.67526203
   1.95390417 11.46560270  0.02263133
   1.90967093 11.59807479  7.67616390
   9.66156457  3.81299632 15.33463658
   1.92217734  3.65162752  3.95970213
   1.89752924 11.53044687 11.61287914
   9.62283040 11.55950393 11.63817131
   5.82408732  0.13020474  7.69512665
   5.75744911  7.61825094  0.11746343
  13.49226163  0.13137438  7.86567608
  13.50158638  7.68718227 15.42284422
   5.82071449 15.35216630  3.92063395
   5.77186807  7.62059756 11.42372281
  13.48671220 15.38934461  3.78491935
  13.49789842 15.24020946 11.43752411
   5.84545071  3.71344516  7.69521419
   5.81008094 11.71087861  0.05133453
   5.81327153 11.45636508  7.75045039
  13.48789464  3.82083919  7.79550178
  13.49994358 11.73547776 15.38093228
  13.46020065 11.44482013  7.68046003
   5.83376458  3.97158343  3.79877288
   5.79948889  3.90233907 11.59455652
   5.81297888 11.56635341  3.82165548
   5.76822531 11.72580329 11.52878447
  13.48778013  3.94721575  3.76088388
  13.49262977  3.97738642 11.51356744
  13.49191332 11.56457952  3.86857513
   0.03097038  1.95589347  0.00038631
   0.00346630  1.94310481  7.83925890
  15.32215647  9.67806155 15.33215960
   0.06664677  9.67154486  7.57780071
   7.76116543  1.92184380 15.38052703
   7.51261785  9.67521819 15.40861241
   7.84493604  9.66765474  7.64589156
  15.29228261  1.97125685  3.80834843
  15.39436721  9.62206518  3.98780722
   0.03260745  9.66064205 11.68990183
   7.70656000  9.65818616  3.94548512
  15.41725677  5.77243007  7.70317009
   7.58965539  5.73670536  7.82487155
   7.51189455 13.54609305  7.71243156
   0.01057250  5.78424166 11.57179441
  15.38140902 13.51404879  3.89029773
   0.17491495 13.53049478 11.49527782
   7.79060593  5.73242275  3.71138276
   7.69787585  5.75321990 11.47795874
   7.67347557 13.51516701  3.78307474
   7.80276217 13.50464856 11.59069166
   3.81640661  1.92509292 15.33277760
   3.82642246  1.91793494  7.66566742
   3.76512384  9.66594426  7.78973110
  11.52138690  1.94165992 15.31179701
  11.77550078  9.66703986 15.33789272
  11.43694751  9.65193170  7.58451404
   4.01914104  1.94891545  3.91123277
   3.94202726  1.92138674 11.68003700
   3.89322342  9.62319255  3.72643614
  11.73068240  1.94103717  3.97112052
  11.55246200  9.65171348  3.92879291
  11.48598038  9.58866390 11.67078184
   3.80691744  5.80110421 15.39099388
   3.75725378 13.48108496  0.04471562
  11.51106854  5.79130666 15.38905095
  11.66586325  5.74755143  7.65684849
  11.45777424 13.51964285  0.32540112
  11.75460852 13.52548699  7.84465067
   3.85176863  5.80020876 11.66528682
   3.91093412 13.50586235  3.88789557
   3.71542751 13.47713360 11.52337465
  11.51353576  5.77180992  3.92733627
  11.57095547  5.75413873 11.56584518
  11.61313860 13.51059597  3.62386287
  11.44784167 13.58811038 11.31674366
 


--------------------------------------------------------------------------------------------------------


 k-point  1 :   0.2500 0.2500 0.2500  plane waves:   93161
 k-point  2 :  -0.2500 0.2500 0.2500  plane waves:   93161
 k-point  3 :   0.2500-0.2500 0.2500  plane waves:   93161
 k-point  4 :  -0.2500-0.2500 0.2500  plane waves:   93161

 maximum and minimum number of plane-waves per node :     11686    11606

 maximum number of plane-waves:     93161
 maximum index in each direction: 
   IXMAX=   28   IYMAX=   28   IZMAX=   27
   IXMIN=  -28   IYMIN=  -28   IZMIN=  -28


 real space projection operators:
  total allocation   :     105595.73 KBytes
  max/ min on nodes  :      13241.88      13161.06


 parallel 3D FFT for wavefunctions:
    minimum data exchange during FFTs selected (reduces bandwidth)
 parallel 3D FFT for charge:
    minimum data exchange during FFTs selected (reduces bandwidth)


 total amount of memory used by VASP MPI-rank0   291573. kBytes
=======================================================================

   base      :      30000. kBytes
   nonlr-proj:      49538. kBytes
   fftplans  :      27976. kBytes
   grid      :      34041. kBytes
   one-center:       1026. kBytes
   wavefun   :     148992. kBytes
 
     INWAV:  cpu time   51.6012: real time   51.8640
 Broyden mixing: mesh for mixing (old mesh)
   NGX = 57   NGY = 57   NGZ = 57
  (NGX  =240   NGY  =240   NGZ  =240)
  gives a total of 185193 points

 charge density for first step will be calculated from the start-wavefunctions


--------------------------------------------------------------------------------------------------------


 Maximum index for non-local projection operator          968
 Maximum index for augmentation-charges         3289 (set IRDMAX)


--------------------------------------------------------------------------------------------------------


 initial charge from wavefunction
 First call to EWALD:  gamma=   0.115
 Maximum number of real-space cells 3x 3x 3
 Maximum number of reciprocal cells 3x 3x 3

    FEWALD:  cpu time    0.0186: real time    0.0186


--------------------------------------- Iteration      1(   1)  ---------------------------------------


    POTLOK:  cpu time    0.2795: real time    0.2899
    SETDIJ:  cpu time    1.4179: real time    1.4285
     EDDAV:  cpu time  132.2125: real time  132.8653
       DOS:  cpu time    0.0030: real time    0.0030
    CHARGE:  cpu time    5.2913: real time    5.3020
    MIXING:  cpu time    0.0281: real time    0.0283
    --------------------------------------------
      LOOP:  cpu time  139.2324: real time  139.9171

 eigenvalue-minimisations  : 23772
 total energy-change (2. order) :-0.1843075E+04  (-0.3475770E+03)
 number of electron    1923.0000029 magnetization       1.0000000
 augmentation part      504.0302854 magnetization       0.7014624

 Broyden mixing:
  rms(total) = 0.82601E+01    rms(broyden)= 0.82568E+01
  rms(prec ) = 0.12744E+02
  weight for this iteration     100.00

 Free energy of the ion-electron system (eV)
  ---------------------------------------------------
  alpha Z        PSCENC =      6118.73324990
  Ewald energy   TEWEN  =   -103178.05694981
  -Hartree energ DENC   =    -65436.73398241
  -exchange      EXHF   =         0.00000000
  -V(xc)+E(xc)   XCENC  =      8961.01820818
  PAW double counting   =    198827.92786586  -199824.21189103
  entropy T*S    EENTRO =        -0.00470389
  eigenvalues    EBANDS =    -25888.99889415
  atomic energy  EATOM  =    178577.25249613
  Solvation  Ediel_sol  =         0.00000000
  ---------------------------------------------------
  free energy    TOTEN  =     -1843.07460122 eV

  energy without entropy =    -1843.06989733  energy(sigma->0) =    -1843.07224928


--------------------------------------------------------------------------------------------------------




--------------------------------------- Iteration      1(   2)  ---------------------------------------


    POTLOK:  cpu time    0.2617: real time    0.2638
    SETDIJ:  cpu time    1.4176: real time    1.4181
     EDDAV:  cpu time  147.5148: real time  148.4927
       DOS:  cpu time    0.0030: real time    0.0030
    CHARGE:  cpu time    5.2741: real time    5.2778
    MIXING:  cpu time    0.0465: real time    0.0469
    --------------------------------------------
      LOOP:  cpu time  154.5176: real time  155.5023

 eigenvalue-minimisations  : 27276
 total energy-change (2. order) :-0.4991817E+02  (-0.3573126E+03)
 number of electron    1923.0000029 magnetization       1.0000000
 augmentation part      508.2459018 magnetization       0.4119357

 Broyden mixing:
  rms(total) = 0.11398E+02    rms(broyden)= 0.11394E+02
  rms(prec ) = 0.16646E+02
  weight for this iteration     100.00

 eigenvalues of (default mixing * dielectric matrix)
  average eigenvalue GAMMA=   0.3753
  0.3753

 Free energy of the ion-electron system (eV)
  ---------------------------------------------------
  alpha Z        PSCENC =      6118.73324990
  Ewald energy   TEWEN  =   -103178.05694981
  -Hartree energ DENC   =    -65505.20878558
  -exchange      EXHF   =         0.00000000
  -V(xc)+E(xc)   XCENC  =      8960.52405291
  PAW double counting   =    200827.79267874  -201799.19867843
  entropy T*S    EENTRO =        -0.00335732
  eigenvalues    EBANDS =    -25894.82748225
  atomic energy  EATOM  =    178577.25249613
  Solvation  Ediel_sol  =         0.00000000
  ---------------------------------------------------
  free energy    TOTEN  =     -1892.99277570 eV

  energy without entropy =    -1892.98941838  energy(sigma->0) =    -1892.99109704


--------------------------------------------------------------------------------------------------------




--------------------------------------- Iteration      1(   3)  ---------------------------------------


    POTLOK:  cpu time    0.3135: real time    0.3138
    SETDIJ:  cpu time    1.3987: real time    1.3996
     EDDAV:  cpu time  151.3490: real time  152.5291
       DOS:  cpu time    0.0024: real time    0.0024
    CHARGE:  cpu time    5.2740: real time    5.2768
    MIXING:  cpu time    0.0080: real time    0.0080
    --------------------------------------------
      LOOP:  cpu time  158.3456: real time  159.5297

 eigenvalue-minimisations  : 28260
 total energy-change (2. order) : 0.3774317E+02  (-0.1292276E+03)
 number of electron    1923.0000029 magnetization       1.0000000
 augmentation part      492.3963225 magnetization       0.5638860

 Broyden mixing:
  rms(total) = 0.58808E+01    rms(broyden)= 0.58783E+01
  rms(prec ) = 0.67670E+01
  weight for this iteration     100.00

 eigenvalues of (default mixing * dielectric matrix)
  average eigenvalue GAMMA=   0.4407
  0.4407  0.4407

 Free energy of the ion-electron system (eV)
  ---------------------------------------------------
  alpha Z        PSCENC =      6118.73324990
  Ewald energy   TEWEN  =   -103178.05694981
  -Hartree energ DENC   =    -65601.21300991
  -exchange      EXHF   =         0.00000000
  -V(xc)+E(xc)   XCENC  =      8962.95919327
  PAW double counting   =    200993.35926785  -201958.17648617
  entropy T*S    EENTRO =        -0.00174242
  eigenvalues    EBANDS =    -25770.10562127
  atomic energy  EATOM  =    178577.25249613
  Solvation  Ediel_sol  =         0.00000000
  ---------------------------------------------------
  free energy    TOTEN  =     -1855.24960242 eV

  energy without entropy =    -1855.24786000  energy(sigma->0) =    -1855.24873121


--------------------------------------------------------------------------------------------------------




--------------------------------------- Iteration      1(   4)  ---------------------------------------


    POTLOK:  cpu time    0.2631: real time    0.2638
    SETDIJ:  cpu time    1.3806: real time    1.3809
     EDDAV:  cpu time  140.7334: real time  141.6697
       DOS:  cpu time    0.0018: real time    0.0018
    CHARGE:  cpu time    5.2680: real time    5.2714
    MIXING:  cpu time    0.0108: real time    0.0111
    --------------------------------------------
      LOOP:  cpu time  147.6577: real time  148.5988

 eigenvalue-minimisations  : 25680
 total energy-change (2. order) : 0.4640220E+02  (-0.3632123E+02)
 number of electron    1923.0000029 magnetization       1.0000000
 augmentation part      493.6230403 magnetization       0.5670000

 Broyden mixing:
  rms(total) = 0.43198E+01    rms(broyden)= 0.43190E+01
  rms(prec ) = 0.50089E+01
  weight for this iteration     100.00

 eigenvalues of (default mixing * dielectric matrix)
  average eigenvalue GAMMA=   0.5237
  0.5725  0.5725  0.4261

 Free energy of the ion-electron system (eV)
  ---------------------------------------------------
  alpha Z        PSCENC =      6118.73324990
  Ewald energy   TEWEN  =   -103178.05694981
  -Hartree energ DENC   =    -65555.60558346
  -exchange      EXHF   =         0.00000000
  -V(xc)+E(xc)   XCENC  =      8968.38166713
  PAW double counting   =    201050.03599085  -202031.26684553
  entropy T*S    EENTRO =        -0.00000000
  eigenvalues    EBANDS =    -25758.32143182
  atomic energy  EATOM  =    178577.25249613
  Solvation  Ediel_sol  =         0.00000000
  ---------------------------------------------------
  free energy    TOTEN  =     -1808.84740660 eV

  energy without entropy =    -1808.84740660  energy(sigma->0) =    -1808.84740660


--------------------------------------------------------------------------------------------------------




--------------------------------------- Iteration      1(   5)  ---------------------------------------


    POTLOK:  cpu time    0.2723: real time    0.2746
    SETDIJ:  cpu time    1.4207: real time    1.4339
     EDDAV:  cpu time  147.0962: real time  148.1772
       DOS:  cpu time    0.0021: real time    0.0021
    CHARGE:  cpu time    5.2749: real time    5.2786
    MIXING:  cpu time    0.0083: real time    0.0083
    --------------------------------------------
      LOOP:  cpu time  154.0744: real time  155.1746

 eigenvalue-minimisations  : 26880
 total energy-change (2. order) : 0.3281444E+02  (-0.9400296E+01)
 number of electron    1923.0000029 magnetization       1.0000000
 augmentation part      494.4175130 magnetization       0.5406934

 Broyden mixing:
  rms(total) = 0.25236E+01    rms(broyden)= 0.25233E+01
  rms(prec ) = 0.29515E+01
  weight for this iteration     100.00

 eigenvalues of (default mixing * dielectric matrix)
  average eigenvalue GAMMA=   0.6538
  0.8356  0.8356  0.4720  0.4720

 Free energy of the ion-electron system (eV)
  ---------------------------------------------------
  alpha Z        PSCENC =      6118.73324990
  Ewald energy   TEWEN  =   -103178.05694981
  -Hartree energ DENC   =    -65561.25989182
  -exchange      EXHF   =         0.00000000
  -V(xc)+E(xc)   XCENC  =      8973.58889272
  PAW double counting   =    200560.94916756  -201552.98159382
  entropy T*S    EENTRO =        -0.00000000
  eigenvalues    EBANDS =    -25714.25834228
  atomic energy  EATOM  =    178577.25249613
  Solvation  Ediel_sol  =         0.00000000
  ---------------------------------------------------
  free energy    TOTEN  =     -1776.03297143 eV

  energy without entropy =    -1776.03297143  energy(sigma->0) =    -1776.03297143


--------------------------------------------------------------------------------------------------------




--------------------------------------- Iteration      1(   6)  ---------------------------------------


    POTLOK:  cpu time    0.2626: real time    0.2629
    SETDIJ:  cpu time    1.3839: real time    1.3849
     EDDAV:  cpu time  147.1543: real time  148.3892
       DOS:  cpu time    0.0018: real time    0.0018
    CHARGE:  cpu time    5.2910: real time    5.2946
    MIXING:  cpu time    0.0107: real time    0.0107
    --------------------------------------------
      LOOP:  cpu time  154.1044: real time  155.3441

 eigenvalue-minimisations  : 27144
 total energy-change (2. order) : 0.1513823E+02  (-0.5856749E+01)
 number of electron    1923.0000029 magnetization       1.0000000
 augmentation part      495.3779951 magnetization       0.5384755

 Broyden mixing:
  rms(total) = 0.14299E+01    rms(broyden)= 0.14296E+01
  rms(prec ) = 0.15662E+01
  weight for this iteration     100.00

 eigenvalues of (default mixing * dielectric matrix)
  average eigenvalue GAMMA=   0.6900
  0.9499  0.9499  0.4358  0.5573  0.5573

 Free energy of the ion-electron system (eV)
  ---------------------------------------------------
  alpha Z        PSCENC =      6118.73324990
  Ewald energy   TEWEN  =   -103178.05694981
  -Hartree energ DENC   =    -65514.77699671
  -exchange      EXHF   =         0.00000000
  -V(xc)+E(xc)   XCENC  =      8974.41404219
  PAW double counting   =    200024.29137294  -201025.97515641
  entropy T*S    EENTRO =        -0.00000000
  eigenvalues    EBANDS =    -25736.77680350
  atomic energy  EATOM  =    178577.25249613
  Solvation  Ediel_sol  =         0.00000000
  ---------------------------------------------------
  free energy    TOTEN  =     -1760.89474526 eV

  energy without entropy =    -1760.89474526  energy(sigma->0) =    -1760.89474526


--------------------------------------------------------------------------------------------------------




--------------------------------------- Iteration      1(   7)  ---------------------------------------


    POTLOK:  cpu time    0.2633: real time    0.2636
    SETDIJ:  cpu time    1.3905: real time    1.3916
     EDDAV:  cpu time  149.5936: real time  150.4047
       DOS:  cpu time    0.0029: real time    0.0029
    CHARGE:  cpu time    5.2355: real time    5.2547
    MIXING:  cpu time    0.0081: real time    0.0081
    --------------------------------------------
      LOOP:  cpu time  156.4939: real time  157.3256

 eigenvalue-minimisations  : 27696
 total energy-change (2. order) : 0.1908389E+01  (-0.9442474E+00)
 number of electron    1923.0000029 magnetization       1.0000000
 augmentation part      496.3553831 magnetization       0.5606609

 Broyden mixing:
  rms(total) = 0.10574E+01    rms(broyden)= 0.10569E+01
  rms(prec ) = 0.11188E+01
  weight for this iteration     100.00

 eigenvalues of (default mixing * dielectric matrix)
  average eigenvalue GAMMA=   0.8496
  1.3415  1.3415  0.6945  0.6945  0.5129  0.5129

 Free energy of the ion-electron system (eV)
  ---------------------------------------------------
  alpha Z        PSCENC =      6118.73324990
  Ewald energy   TEWEN  =   -103178.05694981
  -Hartree energ DENC   =    -65474.83934079
  -exchange      EXHF   =         0.00000000
  -V(xc)+E(xc)   XCENC  =      8973.20465401
  PAW double counting   =    199672.53983406  -200676.43526907
  entropy T*S    EENTRO =        -0.00000000
  eigenvalues    EBANDS =    -25771.38503062
  atomic energy  EATOM  =    178577.25249613
  Solvation  Ediel_sol  =         0.00000000
  ---------------------------------------------------
  free energy    TOTEN  =     -1758.98635619 eV

  energy without entropy =    -1758.98635619  energy(sigma->0) =    -1758.98635619


--------------------------------------------------------------------------------------------------------




--------------------------------------- Iteration      1(   8)  ---------------------------------------


    POTLOK:  cpu time    0.2605: real time    0.2628
    SETDIJ:  cpu time    1.3773: real time    1.3783
     EDDAV:  cpu time  137.3395: real time  138.1781
       DOS:  cpu time    0.0020: real time    0.0019
    CHARGE:  cpu time    5.3770: real time    5.4535
    MIXING:  cpu time    0.0363: real time    0.0367
    --------------------------------------------
      LOOP:  cpu time  144.3926: real time  145.3113

 eigenvalue-minimisations  : 25020
 total energy-change (2. order) :-0.6723460E+00  (-0.1252654E+01)
[...]
   81        1.573   3.458   0.000   5.031
   82        1.574   3.462   0.000   5.036
   83        1.574   3.461   0.000   5.035
   84        1.576   3.473   0.000   5.050
   85        1.575   3.463   0.000   5.039
   86        1.575   3.467   0.000   5.042
   87        1.576   3.467   0.000   5.043
   88        1.569   3.477   0.000   5.046
   89        1.575   3.462   0.000   5.037
   90        1.575   3.457   0.000   5.032
   91        1.574   3.461   0.000   5.035
   92        1.574   3.461   0.000   5.035
   93        1.577   3.472   0.000   5.049
   94        1.577   3.479   0.000   5.056
   95        1.576   3.475   0.000   5.052
   96        1.575   3.464   0.000   5.039
   97        1.575   3.467   0.000   5.043
   98        1.576   3.474   0.000   5.050
   99        1.574   3.464   0.000   5.038
  100        1.576   3.458   0.000   5.034
  101        1.574   3.460   0.000   5.035
  102        1.575   3.460   0.000   5.035
  103        1.575   3.460   0.000   5.035
  104        1.574   3.461   0.000   5.035
  105        1.577   3.472   0.000   5.049
  106        1.575   3.463   0.000   5.038
  107        1.575   3.463   0.000   5.037
  108        1.576   3.476   0.000   5.052
  109        1.575   3.463   0.000   5.038
  110        1.575   3.461   0.000   5.036
  111        1.569   3.502   0.000   5.072
  112        1.577   3.464   0.000   5.040
  113        1.576   3.474   0.000   5.050
  114        1.577   3.475   0.000   5.052
  115        1.575   3.466   0.000   5.041
  116        1.575   3.463   0.000   5.037
  117        1.575   3.461   0.000   5.036
  118        1.574   3.465   0.000   5.040
  119        1.576   3.477   0.000   5.053
  120        1.575   3.460   0.000   5.035
  121        1.574   3.464   0.000   5.039
  122        1.577   3.469   0.000   5.046
  123        1.577   3.474   0.000   5.051
  124        1.576   3.471   0.000   5.047
  125        1.576   3.475   0.000   5.051
  126        1.576   3.470   0.000   5.046
  127        1.575   3.459   0.000   5.034
  128        1.574   3.461   0.000   5.036
  129        1.576   3.471   0.000   5.047
  130        1.737   4.369   0.000   6.106
  131        1.737   4.370   0.000   6.107
  132        1.737   4.379   0.000   6.116
  133        1.738   4.388   0.000   6.126
  134        1.739   4.385   0.000   6.124
  135        1.737   4.368   0.000   6.105
  136        1.736   4.367   0.000   6.103
  137        1.738   4.380   0.000   6.118
  138        1.738   4.381   0.000   6.119
  139        1.739   4.387   0.000   6.127
  140        1.739   4.388   0.000   6.127
  141        1.738   4.380   0.000   6.118
  142        1.738   4.380   0.000   6.118
  143        1.738   4.386   0.000   6.124
  144        1.739   4.387   0.000   6.126
  145        1.738   4.382   0.000   6.120
  146        1.737   4.382   0.000   6.119
  147        1.738   4.378   0.000   6.115
  148        1.735   4.379   0.000   6.115
  149        1.739   4.385   0.000   6.125
  150        1.738   4.388   0.000   6.127
  151        1.738   4.375   0.000   6.114
  152        1.738   4.380   0.000   6.118
  153        1.737   4.382   0.000   6.119
  154        1.737   4.370   0.000   6.107
  155        1.737   4.370   0.000   6.107
  156        1.737   4.369   0.000   6.106
  157        1.737   4.368   0.000   6.105
  158        1.738   4.376   0.000   6.114
  159        1.738   4.376   0.000   6.114
  160        1.737   4.369   0.000   6.106
  161        1.737   4.371   0.000   6.107
  162        1.736   4.369   0.000   6.106
  163        1.736   4.368   0.000   6.104
  164        1.737   4.380   0.000   6.118
  165        1.737   4.371   0.000   6.108
  166        1.736   4.376   0.000   6.112
  167        1.737   4.370   0.000   6.106
  168        1.737   4.370   0.000   6.107
  169        1.739   4.377   0.000   6.116
  170        1.738   4.380   0.000   6.118
  171        1.737   4.370   0.000   6.107
  172        1.738   4.388   0.000   6.126
  173        1.737   4.370   0.000   6.108
  174        1.737   4.370   0.000   6.107
  175        1.739   4.382   0.000   6.121
  176        1.737   4.367   0.000   6.103
  177        1.738   4.380   0.000   6.118
  178        1.737   4.369   0.000   6.105
  179        1.738   4.376   0.000   6.114
  180        1.738   4.381   0.000   6.119
  181        1.736   4.369   0.000   6.105
  182        1.738   4.378   0.000   6.116
  183        1.737   4.368   0.000   6.105
  184        1.737   4.380   0.000   6.118
  185        1.738   4.387   0.000   6.125
  186        1.737   4.382   0.000   6.119
  187        1.737   4.370   0.000   6.107
  188        1.738   4.378   0.000   6.116
  189        1.738   4.384   0.000   6.122
  190        1.738   4.389   0.000   6.127
  191        1.739   4.386   0.000   6.125
  192        1.737   4.369   0.000   6.106
  193        1.739   4.388   0.000   6.127
  194        1.737   4.368   0.000   6.104
  195        1.737   4.370   0.000   6.107
  196        1.738   4.381   0.000   6.119
  197        1.737   4.369   0.000   6.106
  198        1.737   4.377   0.000   6.114
  199        1.738   4.381   0.000   6.119
  200        1.739   4.384   0.000   6.123
  201        1.738   4.380   0.000   6.117
  202        1.738   4.379   0.000   6.118
  203        1.737   4.391   0.000   6.128
  204        1.738   4.379   0.000   6.117
  205        1.737   4.378   0.000   6.115
  206        1.737   4.369   0.000   6.105
  207        1.737   4.370   0.000   6.107
  208        1.738   4.383   0.000   6.121
  209        1.738   4.378   0.000   6.115
  210        1.737   4.369   0.000   6.106
  211        1.737   4.371   0.000   6.109
  212        1.737   4.369   0.000   6.105
  213        1.739   4.376   0.000   6.115
  214        1.736   4.367   0.000   6.103
  215        1.739   4.380   0.000   6.119
  216        1.736   4.368   0.000   6.104
  217        1.737   4.367   0.000   6.103
  218        1.737   4.380   0.000   6.117
  219        1.738   4.379   0.000   6.117
  220        1.738   4.381   0.000   6.119
  221        1.737   4.381   0.000   6.119
  222        1.738   4.380   0.000   6.118
  223        1.738   4.381   0.000   6.119
  224        1.738   4.381   0.000   6.119
  225        1.738   4.380   0.000   6.118
  226        1.738   4.379   0.000   6.117
  227        1.737   4.380   0.000   6.117
  228        1.738   4.378   0.000   6.116
  229        1.738   4.379   0.000   6.116
  230        1.737   4.370   0.000   6.106
  231        1.738   4.377   0.000   6.115
  232        1.737   4.369   0.000   6.105
  233        1.738   4.381   0.000   6.119
  234        1.737   4.370   0.000   6.106
  235        1.737   4.369   0.000   6.106
  236        1.738   4.387   0.000   6.125
  237        1.738   4.385   0.000   6.123
  238        1.737   4.380   0.000   6.117
  239        1.738   4.378   0.000   6.116
  240        1.737   4.380   0.000   6.118
  241        1.738   4.377   0.000   6.115
  242        1.739   4.387   0.000   6.125
  243        1.738   4.388   0.000   6.126
  244        1.737   4.382   0.000   6.119
  245        1.738   4.379   0.000   6.117
  246        1.738   4.378   0.000   6.116
  247        1.738   4.386   0.000   6.124
  248        1.738   4.379   0.000   6.117
  249        1.738   4.382   0.000   6.121
  250        1.738   4.377   0.000   6.115
  251        1.738   4.380   0.000   6.118
  252        1.737   4.381   0.000   6.118
  253        1.738   4.378   0.000   6.116
  254        1.739   4.389   0.000   6.127
  255        1.738   4.379   0.000   6.118
  256        1.739   4.384   0.000   6.123
  257        1.738   4.383   0.000   6.121
--------------------------------------------------
tot        345.5971195.711 112.7061654.014
 


 magnetization (x)
 
# of ion       s       p       d       tot
------------------------------------------
    1       -0.000  -0.000   0.000  -0.000
    2       -0.000  -0.000  -0.000  -0.000
    3       -0.000  -0.000   0.000   0.000
    4       -0.000  -0.000   0.000   0.000
    5       -0.000  -0.000  -0.000  -0.000
    6        0.000  -0.000  -0.000  -0.000
    7       -0.000  -0.000   0.000   0.000
    8       -0.000  -0.000  -0.000  -0.000
    9       -0.000  -0.000   0.000   0.000
   10        0.000  -0.000   0.000   0.000
   11        0.000   0.000   0.000   0.000
   12       -0.000  -0.000  -0.000  -0.000
   13       -0.000  -0.000  -0.000  -0.000
   14       -0.000  -0.000  -0.000  -0.000
   15       -0.000  -0.000   0.000   0.000
   16       -0.000  -0.000   0.000   0.000
   17       -0.000  -0.000   0.000   0.000
   18       -0.000  -0.000   0.000   0.000
   19       -0.000  -0.000   0.000   0.000
   20       -0.000  -0.000   0.000   0.000
   21        0.000   0.000  -0.000  -0.000
   22       -0.000  -0.000   0.000   0.000
   23       -0.000  -0.000  -0.000  -0.000
   24       -0.000  -0.000   0.000  -0.000
   25       -0.000  -0.000   0.000   0.000
   26       -0.000  -0.000  -0.000  -0.000
   27        0.000   0.000   0.000   0.000
   28       -0.000  -0.000   0.000   0.000
   29       -0.000  -0.000  -0.002  -0.003
   30       -0.000  -0.000  -0.000  -0.000
   31       -0.000  -0.000  -0.000  -0.000
   32       -0.000  -0.000   0.000   0.000
   33       -0.000  -0.000   0.000  -0.000
   34       -0.000  -0.000  -0.000  -0.000
   35       -0.000   0.000   0.000   0.000
   36       -0.000  -0.000   0.000   0.000
   37       -0.000  -0.000   0.000   0.000
   38        0.000   0.000   0.003   0.003
   39        0.000   0.000   0.000   0.000
   40        0.000   0.000   0.002   0.002
   41        0.000   0.000   0.003   0.003
   42       -0.000   0.000  -0.000  -0.000
   43       -0.000  -0.000   0.000   0.000
   44       -0.000  -0.000  -0.000  -0.000
   45       -0.000  -0.000  -0.000  -0.000
   46        0.000   0.000   0.000   0.000
   47       -0.000   0.000   0.004   0.004
   48        0.000   0.000   0.000   0.000
   49       -0.000   0.000   0.008   0.008
   50       -0.000   0.000  -0.000  -0.000
   51       -0.000   0.000  -0.000  -0.000
   52       -0.000  -0.000   0.000  -0.000
   53       -0.000  -0.000   0.000   0.000
   54        0.000   0.000   0.000   0.000
   55        0.000   0.000   0.000   0.000
   56        0.000   0.001   0.056   0.057
   57        0.000  -0.000   0.008   0.008
   58       -0.000   0.000  -0.000  -0.000
   59       -0.000  -0.000  -0.000  -0.000
   60       -0.000   0.000   0.000   0.000
   61       -0.000  -0.000  -0.000  -0.000
   62        0.000   0.000   0.000   0.000
   63        0.000  -0.000   0.000   0.000
   64        0.000  -0.000   0.001   0.001
   65        0.005   0.007   0.893   0.904
   66        0.000  -0.000   0.000  -0.000
   67        0.000   0.000   0.000   0.000
   68       -0.000  -0.000   0.000  -0.000
   69       -0.000  -0.000   0.000  -0.000
   70       -0.000  -0.000   0.000  -0.000
   71       -0.000  -0.000   0.000  -0.000
   72        0.000  -0.000   0.000  -0.000
   73       -0.000  -0.000   0.000  -0.000
   74       -0.000   0.000   0.000   0.000
   75       -0.000  -0.000   0.000  -0.000
   76       -0.000  -0.000   0.000  -0.000
   77        0.000  -0.000   0.000  -0.000
   78       -0.000  -0.000   0.000  -0.000
   79       -0.000  -0.001   0.000  -0.001
   80        0.000  -0.000   0.000  -0.000
   81       -0.000  -0.001   0.000  -0.001
   82        0.000   0.000   0.000   0.000
   83        0.000   0.000   0.000   0.000
   84       -0.000  -0.000   0.000  -0.000
   85       -0.000  -0.000   0.000  -0.000
   86        0.000  -0.000   0.000  -0.000
   87       -0.000  -0.001   0.000  -0.001
   88       -0.001  -0.024   0.000  -0.026
   89       -0.000  -0.000   0.000  -0.000
   90       -0.000  -0.000   0.000  -0.000
   91       -0.000  -0.000   0.000  -0.000
   92       -0.000  -0.000   0.000  -0.000
   93       -0.000  -0.000   0.000  -0.000
   94       -0.000  -0.002   0.000  -0.002
   95       -0.000  -0.000   0.000  -0.000
   96       -0.000  -0.000   0.000  -0.000
   97       -0.000  -0.000   0.000  -0.000
   98       -0.000  -0.000   0.000  -0.000
   99       -0.000  -0.000   0.000  -0.000
  100       -0.000  -0.000   0.000  -0.000
  101       -0.000  -0.000   0.000  -0.000
  102       -0.000  -0.000   0.000  -0.000
  103       -0.000  -0.000   0.000  -0.000
  104       -0.000  -0.000   0.000  -0.000
  105       -0.000  -0.000   0.000  -0.000
  106       -0.000  -0.000   0.000  -0.000
  107       -0.000  -0.000   0.000  -0.000
  108       -0.000  -0.000   0.000  -0.000
  109        0.000   0.000   0.000   0.000
  110       -0.000  -0.000   0.000  -0.000
  111       -0.001  -0.013   0.000  -0.014
  112       -0.000  -0.000   0.000  -0.000
  113       -0.000  -0.000   0.000  -0.000
  114       -0.000  -0.000   0.000  -0.000
  115        0.000   0.000   0.000   0.000
  116       -0.000  -0.000   0.000  -0.000
  117       -0.000  -0.000   0.000  -0.000
  118       -0.000  -0.000   0.000  -0.000
  119       -0.000   0.000   0.000   0.000
  120       -0.000  -0.000   0.000  -0.000
  121       -0.000  -0.000   0.000  -0.000
  122       -0.000  -0.000   0.000  -0.000
  123        0.000  -0.000   0.000  -0.000
  124        0.000  -0.000   0.000  -0.000
  125        0.000   0.000   0.000   0.000
  126        0.000  -0.000   0.000  -0.000
  127        0.000   0.000   0.000   0.000
  128       -0.000  -0.000   0.000  -0.000
  129        0.000   0.000   0.000   0.000
  130       -0.000  -0.000   0.000  -0.000
  131       -0.000  -0.000   0.000  -0.000
  132       -0.000  -0.000   0.000  -0.000
  133       -0.000  -0.000   0.000  -0.000
  134       -0.000  -0.000   0.000  -0.000
  135       -0.000  -0.000   0.000  -0.000
  136       -0.000  -0.000   0.000  -0.000
  137        0.000  -0.000   0.000  -0.000
  138       -0.000  -0.000   0.000  -0.000
  139       -0.000  -0.000   0.000  -0.000
  140       -0.000  -0.000   0.000  -0.000
  141       -0.000  -0.000   0.000  -0.000
  142       -0.000  -0.000   0.000  -0.000
  143       -0.000  -0.000   0.000  -0.000
  144       -0.000  -0.000   0.000  -0.000
  145       -0.000  -0.000   0.000  -0.000
  146       -0.000  -0.000   0.000  -0.000
  147        0.000  -0.000   0.000  -0.000
  148       -0.000  -0.000   0.000  -0.000
  149       -0.000  -0.000   0.000  -0.000
  150       -0.000  -0.000   0.000  -0.000
  151       -0.000  -0.000   0.000  -0.000
  152       -0.000  -0.000   0.000  -0.000
  153        0.000   0.000   0.000   0.000
  154        0.000   0.000   0.000   0.000
  155        0.000   0.000   0.000   0.000
  156       -0.000  -0.000   0.000  -0.000
  157        0.000  -0.000   0.000  -0.000
  158        0.000   0.000   0.000   0.000
  159       -0.000  -0.000   0.000  -0.000
  160       -0.000  -0.000   0.000  -0.000
  161        0.000  -0.000   0.000  -0.000
  162       -0.000  -0.000   0.000  -0.000
  163        0.000  -0.000   0.000  -0.000
  164       -0.000  -0.000   0.000  -0.000
  165       -0.000  -0.000   0.000  -0.000
  166       -0.000   0.000   0.000   0.000
  167        0.000   0.000   0.000   0.000
  168       -0.000  -0.000   0.000  -0.000
  169        0.000   0.000   0.000   0.000
  170       -0.000  -0.000   0.000  -0.000
  171       -0.000  -0.000   0.000  -0.000
  172        0.000  -0.000   0.000  -0.000
  173       -0.000  -0.000   0.000  -0.000
  174       -0.000  -0.000   0.000  -0.000
  175       -0.000  -0.000   0.000  -0.000
  176       -0.000  -0.000   0.000  -0.000
  177       -0.000  -0.000   0.000  -0.000
  178       -0.000  -0.000   0.000  -0.000
  179       -0.000  -0.000   0.000  -0.000
  180       -0.000  -0.000   0.000  -0.000
  181       -0.000  -0.000   0.000  -0.000
  182       -0.000  -0.000   0.000  -0.000
  183       -0.000  -0.000   0.000  -0.000
  184       -0.000  -0.000   0.000  -0.000
  185       -0.000  -0.000   0.000  -0.000
  186       -0.000  -0.000   0.000  -0.000
  187       -0.000  -0.000   0.000  -0.000
  188       -0.000   0.000   0.000   0.000
  189       -0.000  -0.000   0.000  -0.000
  190       -0.000  -0.005   0.000  -0.005
  191       -0.000  -0.000   0.000  -0.000
  192       -0.000  -0.000   0.000  -0.000
  193       -0.000  -0.000   0.000  -0.000
  194       -0.000  -0.000   0.000  -0.000
  195       -0.000  -0.000   0.000  -0.000
  196       -0.000  -0.000   0.000  -0.000
  197       -0.000  -0.000   0.000  -0.000
  198       -0.000  -0.000   0.000  -0.000
  199        0.000  -0.000   0.000  -0.000
  200       -0.000  -0.000   0.000  -0.000
  201       -0.000  -0.000   0.000  -0.000
  202       -0.000  -0.000   0.000  -0.000
  203       -0.000  -0.000   0.000  -0.000
  204       -0.000  -0.000   0.000  -0.000
  205        0.000   0.000   0.000   0.000
  206       -0.000  -0.000   0.000  -0.000
  207       -0.000  -0.000   0.000  -0.000
  208       -0.000  -0.000   0.000  -0.000
  209       -0.000  -0.000   0.000  -0.000
  210       -0.000  -0.000   0.000  -0.000
  211       -0.000  -0.000   0.000  -0.000
  212       -0.000  -0.000   0.000  -0.000
  213       -0.000  -0.000   0.000  -0.000
  214       -0.000  -0.000   0.000  -0.000
  215       -0.000  -0.000   0.000  -0.000
  216       -0.000  -0.000   0.000  -0.000
  217       -0.000  -0.000   0.000  -0.000
  218       -0.000  -0.000   0.000  -0.000
  219       -0.000  -0.000   0.000  -0.000
  220       -0.000  -0.000   0.000  -0.000
  221        0.000  -0.000   0.000  -0.000
  222       -0.000  -0.000   0.000  -0.000
  223       -0.000  -0.000   0.000  -0.000
  224       -0.000  -0.000   0.000  -0.000
  225       -0.000  -0.000   0.000  -0.000
  226       -0.000  -0.000   0.000  -0.000
  227       -0.000  -0.000   0.000  -0.000
  228       -0.000  -0.000   0.000  -0.000
  229       -0.000  -0.000   0.000  -0.000
  230       -0.000  -0.000   0.000  -0.000
  231       -0.000  -0.000   0.000  -0.000
  232       -0.000  -0.000   0.000  -0.000
  233       -0.000  -0.000   0.000  -0.000
  234       -0.000  -0.000   0.000  -0.000
  235       -0.000  -0.000   0.000  -0.000
  236       -0.000  -0.000   0.000  -0.000
  237       -0.000  -0.000   0.000  -0.000
  238        0.000  -0.000   0.000  -0.000
  239       -0.000  -0.000   0.000  -0.000
  240       -0.000  -0.000   0.000  -0.000
  241       -0.000  -0.000   0.000  -0.000
  242        0.000  -0.000   0.000  -0.000
  243       -0.000  -0.000   0.000  -0.000
  244       -0.000   0.001   0.000   0.001
  245       -0.000  -0.000   0.000  -0.000
  246        0.000  -0.000   0.000  -0.000
  247        0.000   0.000   0.000   0.000
  248       -0.000   0.000   0.000   0.000
  249       -0.000   0.000   0.000  -0.000
  250        0.000   0.000   0.000   0.000
  251       -0.000  -0.000   0.000  -0.000
  252       -0.000  -0.000   0.000  -0.000
  253       -0.000  -0.000   0.000  -0.000
  254       -0.000  -0.000   0.000  -0.000
  255       -0.000  -0.000   0.000  -0.000
  256       -0.000  -0.000   0.000  -0.000
  257       -0.000   0.003   0.000   0.003
--------------------------------------------------
tot          0.001  -0.040   0.977   0.938
 

 total amount of memory used by VASP MPI-rank0   291573. kBytes
=======================================================================

   base      :      30000. kBytes
   nonlr-proj:      49538. kBytes
   fftplans  :      27976. kBytes
   grid      :      34041. kBytes
   one-center:       1026. kBytes
   wavefun   :     148992. kBytes
 
  
  
 General timing and accounting informations for this job:
 ========================================================
  
                  Total CPU time used (sec):     5464.891
                            User time (sec):     5049.354
                          System time (sec):      415.537
                         Elapsed time (sec):     5509.372
  
                   Maximum memory used (kb):      629544.
                   Average memory used (kb):           0.
  
                          Minor page faults:       283081
                          Major page faults:           15
                 Voluntary context switches:        37529
