 vasp.5.4.4.18Apr17-6-g9f103f2a35 (build Jul 16 2019 12:12:28) complex          
  
 executed on             LinuxIFC date 2020.01.06  11:58:24
 running on   96 total cores
 distrk:  each k-point on   96 cores,    1 groups
 distr:  one band on NCORES_PER_BAND=   8 cores,   12 groups


--------------------------------------------------------------------------------------------------------


 INCAR:
 POTCAR:    PAW_PBE Li_sv 10Sep2004               
 POTCAR:    PAW_PBE Ti_pv 07Sep2000               
 POTCAR:    PAW_PBE O 08Apr2002                   
 POTCAR:    PAW_PBE F 08Apr2002                   
 POTCAR:    PAW_PBE Li_sv 10Sep2004               
   VRHFIN =Li: 1s2s2p                                                           
   LEXCH  = PE                                                                  
   EATOM  =   202.7858 eV,   14.9043 Ry                                         
                                                                                
   TITEL  = PAW_PBE Li_sv 10Sep2004                                             
   LULTRA =        F    use ultrasoft PP ?                                      
   IUNSCR =        0    unscreen: 0-lin 1-nonlin 2-no                           
   RPACOR =    0.000    partial core radius                                     
   POMASS =    7.010; ZVAL   =    3.000    mass and valenz                      
   RCORE  =    1.700    outmost cutoff radius                                   
   RWIGS  =    2.050; RWIGS  =    1.085    wigner-seitz radius (au A)           
   ENMAX  =  499.034; ENMIN  =  374.276 eV                                      
   ICORE  =        2    local potential                                         
   LCOR   =        T    correct aug charges                                     
   LPAW   =        T    paw PP                                                  
   EAUG   =  628.945                                                            
   RMAX   =    1.732    core radius for proj-oper                               
   RAUG   =    1.300    factor for augmentation sphere                          
   RDEP   =    1.728    radius for radial grids                                 
   RDEPT  =    1.329    core radius for aug-charge                              
                                                                                
   Atomic configuration                                                         
    4 entries                                                                   
     n  l   j            E        occ.                                          
     1  0  0.50       -51.8549   2.0000                                         
     2  0  0.50        -2.8742   1.0000                                         
     2  1  0.50        -1.3606   0.0000                                         
     3  2  1.50        -1.3606   0.0000                                         
   Description                                                                  
     l       E           TYP  RCUT    TYP  RCUT                                 
     0    -51.8548813     23  1.400                                             
     0     -2.8742052     23  1.700                                             
     1     -1.3605826     23  1.400                                             
     2     -1.3605826     23  1.400                                             
  local pseudopotential read in
  atomic valenz-charges read in
  non local Contribution for L=           0  read in
    real space projection operators read in
  non local Contribution for L=           0  read in
    real space projection operators read in
  non local Contribution for L=           1  read in
    real space projection operators read in
    PAW grid and wavefunctions read in
 
   number of l-projection  operators is LMAX  =           3
   number of lm-projection operators is LMMAX =           5
 
 POTCAR:    PAW_PBE Ti_pv 07Sep2000               
   VRHFIN =Ti: d3 s1                                                            
   LEXCH  = PE                                                                  
   EATOM  =  1042.5995 eV,   76.6289 Ry                                         
                                                                                
   TITEL  = PAW_PBE Ti_pv 07Sep2000                                             
   LULTRA =        F    use ultrasoft PP ?                                      
   IUNSCR =        1    unscreen: 0-lin 1-nonlin 2-no                           
   RPACOR =    2.200    partial core radius                                     
   POMASS =   47.880; ZVAL   =   10.000    mass and valenz                      
   RCORE  =    2.500    outmost cutoff radius                                   
   RWIGS  =    2.500; RWIGS  =    1.323    wigner-seitz radius (au A)           
   ENMAX  =  222.335; ENMIN  =  166.751 eV                                      
   RCLOC  =    1.701    cutoff for local pot                                    
   LCOR   =        T    correct aug charges                                     
   LPAW   =        T    paw PP                                                  
   EAUG   =  482.848                                                            
   DEXC   =    0.000                                                            
   RMAX   =    2.564    core radius for proj-oper                               
   RAUG   =    1.300    factor for augmentation sphere                          
   RDEP   =    2.538    radius for radial grids                                 
   RDEPT  =    1.952    core radius for aug-charge                              
                                                                                
   Atomic configuration                                                         
    8 entries                                                                   
     n  l   j            E        occ.                                          
     1  0  0.50     -4865.3608   2.0000                                         
     2  0  0.50      -533.1368   2.0000                                         
     2  1  1.50      -440.5031   6.0000                                         
     3  0  0.50       -59.3186   2.0000                                         
     3  1  1.50       -35.7012   6.0000                                         
     3  2  2.50        -1.9157   3.0000                                         
     4  0  0.50        -3.7291   1.0000                                         
     4  3  2.50        -1.3606   0.0000                                         
   Description                                                                  
     l       E           TYP  RCUT    TYP  RCUT                                 
     1    -35.7012140     23  2.300                                             
     1     -1.3605826     23  2.300                                             
     2     -1.9156996     23  2.500                                             
     2     -0.4063033     23  2.500                                             
     0     -3.7290856     23  2.500                                             
     0     20.4087390     23  2.500                                             
  local pseudopotential read in
  partial core-charges read in
  partial kinetic energy density read in
  atomic valenz-charges read in
  non local Contribution for L=           1  read in
    real space projection operators read in
  non local Contribution for L=           1  read in
    real space projection operators read in
  non local Contribution for L=           2  read in
    real space projection operators read in
  non local Contribution for L=           2  read in
    real space projection operators read in
  non local Contribution for L=           0  read in
    real space projection operators read in
  non local Contribution for L=           0  read in
    real space projection operators read in
    PAW grid and wavefunctions read in
 
   number of l-projection  operators is LMAX  =           6
   number of lm-projection operators is LMMAX =          18
 
 POTCAR:    PAW_PBE O 08Apr2002                   
   VRHFIN =O: s2p4                                                              
   LEXCH  = PE                                                                  
   EATOM  =   432.3788 eV,   31.7789 Ry                                         
                                                                                
   TITEL  = PAW_PBE O 08Apr2002                                                 
   LULTRA =        F    use ultrasoft PP ?                                      
   IUNSCR =        1    unscreen: 0-lin 1-nonlin 2-no                           
   RPACOR =    1.200    partial core radius                                     
   POMASS =   16.000; ZVAL   =    6.000    mass and valenz                      
   RCORE  =    1.520    outmost cutoff radius                                   
   RWIGS  =    1.550; RWIGS  =    0.820    wigner-seitz radius (au A)           
   ENMAX  =  400.000; ENMIN  =  300.000 eV                                      
   ICORE  =        2    local potential                                         
   LCOR   =        T    correct aug charges                                     
   LPAW   =        T    paw PP                                                  
   EAUG   =  605.392                                                            
   DEXC   =    0.000                                                            
   RMAX   =    1.553    core radius for proj-oper                               
   RAUG   =    1.300    factor for augmentation sphere                          
   RDEP   =    1.550    radius for radial grids                                 
   RDEPT  =    1.329    core radius for aug-charge                              
                                                                                
   Atomic configuration                                                         
    4 entries                                                                   
     n  l   j            E        occ.                                          
     1  0  0.50      -514.6923   2.0000                                         
     2  0  0.50       -23.9615   2.0000                                         
     2  1  0.50        -9.0305   4.0000                                         
     3  2  1.50        -9.5241   0.0000                                         
   Description                                                                  
     l       E           TYP  RCUT    TYP  RCUT                                 
     0    -23.9615318     23  1.200                                             
     0     -9.5240782     23  1.200                                             
     1     -9.0304911     23  1.520                                             
     1      8.1634956     23  1.520                                             
     2     -9.5240782      7  1.500                                             
  local pseudopotential read in
  partial core-charges read in
  partial kinetic energy density read in
  kinetic energy density of atom read in
  atomic valenz-charges read in
  non local Contribution for L=           0  read in
    real space projection operators read in
  non local Contribution for L=           0  read in
    real space projection operators read in
  non local Contribution for L=           1  read in
    real space projection operators read in
  non local Contribution for L=           1  read in
    real space projection operators read in
    PAW grid and wavefunctions read in
 
   number of l-projection  operators is LMAX  =           4
   number of lm-projection operators is LMMAX =           8
 
 POTCAR:    PAW_PBE F 08Apr2002                   
   VRHFIN =F: s2p5                                                              
   LEXCH  = PE                                                                  
   EATOM  =   659.6475 eV,   48.4827 Ry                                         
                                                                                
   TITEL  = PAW_PBE F 08Apr2002                                                 
   LULTRA =        F    use ultrasoft PP ?                                      
   IUNSCR =        1    unscreen: 0-lin 1-nonlin 2-no                           
   RPACOR =    1.200    partial core radius                                     
   POMASS =   18.998; ZVAL   =    7.000    mass and valenz                      
   RCORE  =    1.520    outmost cutoff radius                                   
   RWIGS  =    1.500; RWIGS  =    0.794    wigner-seitz radius (au A)           
   ENMAX  =  400.000; ENMIN  =  300.000 eV                                      
   ICORE  =        2    local potential                                         
   LCOR   =        T    correct aug charges                                     
   LPAW   =        T    paw PP                                                  
   EAUG   =  613.614                                                            
   RMAX   =    1.555    core radius for proj-oper                               
   RAUG   =    1.300    factor for augmentation sphere                          
   RDEP   =    1.539    radius for radial grids                                 
   RDEPT  =    1.299    core radius for aug-charge                              
                                                                                
   Atomic configuration                                                         
    4 entries                                                                   
     n  l   j            E        occ.                                          
     1  0  0.50      -663.3661   2.0000                                         
     2  0  0.50       -29.8995   2.0000                                         
     2  1  0.50       -11.1114   5.0000                                         
     3  2  1.50       -10.8847   0.0000                                         
   Description                                                                  
     l       E           TYP  RCUT    TYP  RCUT                                 
     0    -29.8995018     23  1.200                                             
     0     -9.5240782     23  1.200                                             
     1    -11.1113914     23  1.520                                             
     1      1.3605826     23  1.520                                             
     2    -10.8846608      7  1.500                                             
  local pseudopotential read in
  partial core-charges read in
  partial kinetic energy density read in
  atomic valenz-charges read in
  non local Contribution for L=           0  read in
    real space projection operators read in
  non local Contribution for L=           0  read in
    real space projection operators read in
  non local Contribution for L=           1  read in
    real space projection operators read in
  non local Contribution for L=           1  read in
    real space projection operators read in
    PAW grid and wavefunctions read in
 
   number of l-projection  operators is LMAX  =           4
   number of lm-projection operators is LMMAX =           8
 
 Optimization of the real space projectors (new method)

 maximal supplied QI-value         = 22.11
 optimisation between [QCUT,QGAM] = [ 11.28, 22.77] = [ 35.61,145.23] Ry 
 Optimized for a Real-space Cutoff    1.31 Angstroem

   l    n(q)    QCUT    max X(q) W(low)/X(q) W(high)/X(q)  e(spline) 
   0      9    11.276    10.506    0.19E-04    0.17E-04    0.32E-07
   0      9    11.276     8.367    0.38E-04    0.40E-04    0.65E-07
   1      8    11.276     8.983    0.55E-04    0.98E-04    0.20E-06
 Optimization of the real space projectors (new method)

 maximal supplied QI-value         = 15.12
 optimisation between [QCUT,QGAM] = [ 11.34, 22.83] = [ 36.00,145.93] Ry 
 Optimized for a Real-space Cutoff    1.56 Angstroem

   l    n(q)    QCUT    max X(q) W(low)/X(q) W(high)/X(q)  e(spline) 
   1     10    11.338     4.216    0.27E-04    0.12E-04    0.66E-07
   1     10    11.338     5.422    0.81E-04    0.24E-04    0.19E-06
   2     10    11.338    72.084    0.64E-04    0.21E-03    0.51E-06
   2     10    11.338    65.965    0.63E-04    0.21E-03    0.50E-06
   0     11    11.338    41.531    0.33E-04    0.54E-04    0.13E-06
   0     11    11.338    16.290    0.26E-04    0.41E-04    0.11E-06
 Optimization of the real space projectors (new method)

 maximal supplied QI-value         = 24.76
 optimisation between [QCUT,QGAM] = [ 11.39, 22.77] = [ 36.31,145.25] Ry 
 Optimized for a Real-space Cutoff    1.20 Angstroem

   l    n(q)    QCUT    max X(q) W(low)/X(q) W(high)/X(q)  e(spline) 
   0      8    11.387    20.381    0.89E-04    0.31E-03    0.27E-06
   0      8    11.387    15.268    0.93E-04    0.32E-03    0.29E-06
   1      8    11.387     5.964    0.53E-04    0.28E-03    0.29E-06
   1      8    11.387     5.382    0.37E-04    0.22E-03    0.26E-06
 Optimization of the real space projectors (new method)

 maximal supplied QI-value         = 24.76
 optimisation between [QCUT,QGAM] = [ 11.39, 22.77] = [ 36.31,145.25] Ry 
 Optimized for a Real-space Cutoff    1.20 Angstroem

   l    n(q)    QCUT    max X(q) W(low)/X(q) W(high)/X(q)  e(spline) 
   0      8    11.387    14.049    0.69E-04    0.23E-03    0.18E-06
   0      8    11.387     8.945    0.88E-04    0.30E-03    0.26E-06
   1      8    11.387     7.086    0.62E-04    0.27E-03    0.27E-06
   1      8    11.387     6.747    0.46E-04    0.23E-03    0.25E-06

 ----------------------------------------------------------------------------- 
|                                                                             |
|  ADVICE TO THIS USER RUNNING 'VASP/VAMP'   (HEAR YOUR MASTER'S VOICE ...):  |
|                                                                             |
|      You enforced a specific xc-type in the INCAR file,                     |
|      a different type was found on the POTCAR file                          |
|          I HOPE YOU KNOW, WHAT YOU ARE  DOING                               |
|                                                                             |
 ----------------------------------------------------------------------------- 

  PAW_PBE Li_sv 10Sep2004               :
 energy of atom  1       EATOM= -202.7858
 kinetic energy error for atom=    0.0143 (will be added to EATOM!!)
  PAW_PBE Ti_pv 07Sep2000               :
 energy of atom  2       EATOM=-1042.5995
 kinetic energy error for atom=    0.0024 (will be added to EATOM!!)
  PAW_PBE O 08Apr2002                   :
 energy of atom  3       EATOM= -432.3788
 kinetic energy error for atom=    0.0224 (will be added to EATOM!!)
  PAW_PBE F 08Apr2002                   :
 energy of atom  4       EATOM= -659.6475
 kinetic energy error for atom=    0.0354 (will be added to EATOM!!)
 
 
 POSCAR: config 52                               
  positions in direct lattice
  velocities in cartesian coordinates
 exchange correlation table for  LEXCH =       14
   RHO(1)=    0.500       N(1)  =     2000
   RHO(2)=  100.500       N(2)  =     4000

 VTST: version 3.2, (02/03/18)

 CHAIN: initializing optimizer
 
 OPT: Using VASP QUASI-newton optimizer
 CHAIN: Read ICHAIN            0
 
 POSCAR: config 52                               
  positions in direct lattice
  velocities in cartesian coordinates
 


--------------------------------------------------------------------------------------------------------


 ion  position               nearest neighbor table
   1  0.874  0.076  0.883-  68 2.02 103 2.04  81 2.13  38 2.78   2 2.84
   2  0.995  0.995  0.996- 118 1.84 103 1.90  68 1.93 171 2.00 130 2.01 212 2.05   1 2.84
   3  0.999  0.992  0.493- 119 1.81  67 1.82 172 1.94 193 1.96 131 2.02 213 2.08
   4  0.005  0.495  0.997-  89 1.83 117 1.86 138 1.93 132 1.98 194 2.02 214 2.02
   5  0.994  0.503  0.507-  66 1.82 104 1.83 215 1.93 223 2.00 173 2.01 137 2.03
   6  0.493  0.995  0.000- 101 1.82 121 1.84 140 1.94 133 1.96 216 2.01 174 2.05
   7  0.502  0.008  0.500- 112 1.77 191 1.91 134 1.91 139 1.92 175 1.94 225 2.02
   8  0.504  0.495  0.996-  70 1.88 120 1.88  90 1.89 192 2.03 135 2.04 217 2.05
   9  0.492  0.500  0.495- 102 1.81  69 1.86 224 1.98 218 1.99 136 2.01 176 2.06
  10  0.006  0.004  0.257-  91 1.83  67 1.85 219 1.94 227 1.97 130 2.01 197 2.05
  11  0.002  0.008  0.755-  68 1.83 113 1.84 177 1.92 198 1.99 131 2.03 228 2.04
  12  0.994  0.494  0.251- 107 1.82 122 1.86 137 1.93 132 1.96 220 2.01 178 2.02
  13  0.993  0.499  0.742- 108 1.81  66 1.83 226 1.93 221 1.97 138 2.02 179 2.04
  14  0.506  0.009  0.251- 114 1.82  92 1.84 133 1.93 139 1.97 195 2.00 231 2.05
  15  0.493  0.006  0.752- 115 1.80 105 1.83 140 1.94 134 2.00 232 2.03 180 2.04
  16  0.493  0.497  0.257-  69 1.82 106 1.84 229 1.96 222 2.00 135 2.02 181 2.04
  17  0.500  0.505  0.758-  70 1.80 116 1.87 182 1.94 196 1.97 230 2.03 136 2.07
  18  0.995  0.257  0.001- 117 1.82 110 1.88 141 1.95 146 1.97 183 2.00 212 2.02
  19  0.999  0.248  0.491-  74 1.77 213 1.91 202 1.93 184 1.93 223 1.94 142 2.01
  20  0.997  0.757  0.006- 118 1.83  71 1.84 203 1.94 185 1.97 214 2.04 148 2.04
  21  0.997  0.757  0.506-  72 1.83 119 1.83 204 1.94 186 1.96 215 2.02 147 2.03
  22  0.494  0.258  0.001- 120 1.80 109 1.85 150 1.95 143 1.98 187 2.03 216 2.08
  23  0.508  0.246  0.499-  93 1.80 112 1.90 144 1.91 149 1.94 224 1.97 199 2.01
  24  0.506  0.757  0.999-  94 1.83 121 1.84 152 1.94 145 1.99 217 2.01 200 2.01
  25  0.507  0.753  0.509-  73 1.79  95 1.83 225 1.96 218 1.96 201 2.01 151 2.07
  26  0.000  0.258  0.255- 122 1.79  74 1.88 209 1.94 188 1.95 141 1.99 219 2.03
  27  0.008  0.242  0.746-  96 1.81 113 1.83 142 1.96 146 1.98 210 2.03 226 2.04
  28  0.007  0.749  0.243-  71 1.83  97 1.83 220 1.94 227 1.98 147 2.04 211 2.05
  29  0.993  0.752  0.744- 111 1.82  72 1.85 228 1.94 221 1.97 148 2.02 189 2.02
  30  0.508  0.242  0.251-  98 1.81 114 1.83 143 1.92 149 1.96 229 2.01 205 2.02
  31  0.509  0.243  0.750-  99 1.77 115 1.88 150 1.94 144 1.98 230 2.02 206 2.07
  32  0.507  0.752  0.252- 100 1.79 151 1.92 231 1.93 145 1.94 222 1.94 207 2.01
  33  0.501  0.743  0.744- 116 1.81  73 1.84 190 1.93 208 1.97 152 2.02 232 2.05
  34  0.256  0.999  0.006-  75 1.84 101 1.85 246 1.93 233 1.96 171 2.03 157 2.03
  35  0.250  0.994  0.507- 128 1.83  76 1.83 172 1.95 191 1.99 234 2.02 156 2.03
  36  0.243  0.507  0.997- 123 1.82  89 1.84 159 1.93 153 1.97 192 2.02 245 2.03
  37  0.254  0.495  0.506-  77 1.85 102 1.88 127 1.88 173 2.03 235 2.05 158 2.05
  38  0.755  1.000  0.996-  81 1.84 103 1.84 249 1.94 236 1.96 174 2.01 154 2.03   1 2.78
  39  0.750  0.007  0.494- 124 1.82  80 1.83 193 1.94 175 1.99 155 1.99 250 2.03
  40  0.742  0.500  0.005-  90 1.80  78 1.87 237 1.95 247 1.96 161 2.02 194 2.06
  41  0.755  0.498  0.506-  79 1.83 104 1.86 248 1.95 238 1.98 176 2.02 160 2.03
  42  0.244  0.003  0.244-  75 1.84  91 1.85 239 1.93 252 1.96 156 2.03 195 2.05
  43  0.258  0.997  0.744- 105 1.82  76 1.84 253 1.93 240 1.97 157 2.02 177 2.05
  44  0.255  0.492  0.252- 129 1.83 106 1.83 158 1.93 153 1.97 178 2.04 241 2.04
  45  0.248  0.506  0.741-  77 1.79 125 1.84 179 1.95 196 1.97 251 2.03 159 2.06
  46  0.745  0.000  0.256-  80 1.85  92 1.85 256 1.95 242 1.95 154 1.99 197 2.00
  47  0.750  0.009  0.753- 126 1.75  81 1.91 180 1.94 198 2.00 155 2.03 257 2.06
  48  0.755  0.499  0.243-  78 1.81 107 1.86 243 1.95 254 1.95 181 2.02 160 2.04
  49  0.757  0.499  0.743- 108 1.83  79 1.84 255 1.90 244 1.97 182 2.03 161 2.04
  50  0.257  0.251  0.005- 109 1.83  82 1.86 245 1.93 233 1.97 168 2.01 183 2.05
  51  0.254  0.257  0.505- 127 1.80  83 1.85 199 1.95 184 2.01 167 2.03 234 2.05
  52  0.251  0.743  0.993- 123 1.82  86 1.83 200 1.94 185 1.96 162 2.04 246 2.04
  53  0.252  0.756  0.493-  85 1.83 128 1.86 201 1.95 186 1.97 235 2.00 163 2.04
  54  0.757  0.250  0.007- 110 1.83  84 1.86 247 1.94 236 1.95 170 1.95 187 2.03
  55  0.743  0.243  0.498- 124 1.83  93 1.84 164 1.90 169 1.93 248 2.02 202 2.04
  56  0.742  0.750  0.995-  94 1.82  88 1.83 237 1.93 249 1.96 203 2.02 165 2.04
  57  0.742  0.753  0.495-  95 1.81  87 1.86 250 1.94 238 1.96 166 2.01 204 2.03
  58  0.251  0.258  0.243- 129 1.82  82 1.82 205 1.95 188 1.99 167 2.03 239 2.04
  59  0.246  0.251  0.743-  83 1.83  96 1.87 251 1.94 240 1.98 206 2.00 168 2.04
  60  0.244  0.748  0.256-  97 1.84  85 1.84 241 1.93 252 1.98 162 2.02 207 2.05
  61  0.249  0.742  0.756- 125 1.81  86 1.84 189 1.93 208 1.97 163 2.04 253 2.05
  62  0.743  0.251  0.242-  84 1.79  98 1.83 254 1.94 242 1.95 209 2.04 169 2.04
  63  0.748  0.245  0.751-  99 1.93 126 1.97 170 2.01 210 2.03 164 2.04 255 2.05
  64  0.746  0.750  0.257-  87 1.81 100 1.90 243 1.93 256 1.94 211 1.98 165 2.02
  65  0.757  0.753  0.757- 111 1.82  88 1.84 257 1.91 244 1.96 190 2.03 166 2.05
  66  0.009  0.500  0.624-   5 1.82  13 1.83
  67  0.994  0.009  0.376-   3 1.82  10 1.85
  68  0.987  0.011  0.872-  11 1.83   2 1.93   1 2.02
  69  0.499  0.493  0.375-  16 1.82   9 1.86
  70  0.493  0.496  0.875-  17 1.80   8 1.88
  71  0.999  0.750  0.125-  28 1.83  20 1.84
  72  0.001  0.750  0.624-  21 1.83  29 1.85
  73  0.501  0.752  0.625-  25 1.79  33 1.84
  74  0.999  0.244  0.376-  19 1.77  26 1.88
  75  0.252  0.003  0.125-  42 1.84  34 1.84
  76  0.251  0.003  0.625-  35 1.83  43 1.84
  77  0.238  0.496  0.626-  45 1.79  37 1.85
  78  0.750  0.492  0.126-  48 1.81  40 1.87
  79  0.745  0.496  0.624-  41 1.83  49 1.84
  80  0.753  0.998  0.376-  39 1.83  46 1.85
  81  0.758  0.002  0.877-  38 1.84  47 1.91   1 2.13
  82  0.248  0.250  0.125-  58 1.82  50 1.86
  83  0.255  0.250  0.625-  59 1.83  51 1.85
  84  0.748  0.259  0.127-  62 1.79  54 1.86
  85  0.254  0.746  0.374-  53 1.83  60 1.84
  86  0.252  0.753  0.875-  52 1.83  61 1.84
  87  0.752  0.752  0.375-  64 1.81  57 1.86
  88  0.749  0.753  0.876-  56 1.83  65 1.84
  89  0.124  0.499  0.994-   4 1.83  36 1.84
  90  0.625  0.502  0.997-  40 1.80   8 1.89
  91  0.125  0.005  0.253-  10 1.83  42 1.85
  92  0.625  0.003  0.252-  14 1.84  46 1.85
  93  0.624  0.260  0.497-  23 1.80  55 1.84
  94  0.624  0.748  0.003-  56 1.82  24 1.83
  95  0.625  0.764  0.496-  57 1.81  25 1.83
  96  0.125  0.243  0.746-  27 1.81  59 1.87
  97  0.125  0.750  0.251-  28 1.83  60 1.84
  98  0.625  0.243  0.257-  30 1.81  62 1.83
  99  0.623  0.244  0.743-  31 1.77  63 1.93
 100  0.623  0.752  0.251-  32 1.79  64 1.90
 101  0.375  0.004  0.994-   6 1.82  34 1.85
 102  0.375  0.508  0.504-   9 1.81  37 1.88
 103  0.873  0.017  0.001-  38 1.84   2 1.90   1 2.04
 104  0.875  0.505  0.500-   5 1.83  41 1.86
 105  0.376  0.988  0.754-  43 1.82  15 1.83
 106  0.374  0.495  0.248-  44 1.83  16 1.84
 107  0.876  0.496  0.251-  12 1.82  48 1.86
 108  0.876  0.500  0.745-  13 1.81  49 1.83
 109  0.375  0.244  0.000-  50 1.83  22 1.85
 110  0.875  0.239  1.000-  54 1.83  18 1.88
 111  0.875  0.755  0.750-  29 1.82  65 1.82
 112  0.512  0.123  0.494-   7 1.77  23 1.90
 113  0.986  0.125  0.742-  27 1.83  11 1.84
 114  0.493  0.125  0.264-  14 1.82  30 1.83
 115  0.492  0.123  0.749-  15 1.80  31 1.88
 116  0.494  0.626  0.751-  33 1.81  17 1.87
 117  0.995  0.375  0.001-  18 1.82   4 1.86
 118  0.994  0.876  0.997-  20 1.83   2 1.84
 119  0.992  0.875  0.496-   3 1.81  21 1.83
 120  0.498  0.374  0.008-  22 1.80   8 1.88
 121  0.499  0.876  0.006-  24 1.84   6 1.84
 122  0.009  0.374  0.249-  26 1.79  12 1.86
 123  0.250  0.625  0.002-  52 1.82  36 1.82
 124  0.739  0.124  0.501-  39 1.82  55 1.83
 125  0.256  0.625  0.749-  61 1.81  45 1.84
 126  0.772  0.120  0.750-  47 1.75  63 1.97
 127  0.255  0.373  0.493-  51 1.80  37 1.88
 128  0.255  0.876  0.499-  35 1.83  53 1.86
 129  0.240  0.375  0.256-  58 1.82  44 1.83
 130  0.001  1.000  0.126-  10 2.01   2 2.01
 131  0.007  0.996  0.624-   3 2.02  11 2.03
 132  0.002  0.506  0.125-  12 1.96   4 1.98
 133  0.497  0.009  0.126-  14 1.93   6 1.96
 134  0.502  0.997  0.623-   7 1.91  15 2.00
 135  0.503  0.508  0.127-  16 2.02   8 2.04
 136  0.508  0.502  0.624-   9 2.01  17 2.07
 137  0.003  0.500  0.376-  12 1.93   5 2.03
 138  0.994  0.501  0.873-   4 1.93  13 2.02
 139  0.500  0.988  0.377-   7 1.92  14 1.97
 140  0.512  0.997  0.876-  15 1.94   6 1.94
 141  0.004  0.248  0.127-  18 1.95  26 1.99
 142  0.998  0.260  0.621-  27 1.96  19 2.01
 143  0.503  0.238  0.127-  30 1.92  22 1.98
 144  0.491  0.246  0.622-  23 1.91  31 1.98
 145  0.496  0.745  0.127-  32 1.94  24 1.99
 146  0.999  0.245  0.874-  18 1.97  27 1.98
 147  0.995  0.748  0.375-  21 2.03  28 2.04
 148  0.002  0.749  0.874-  29 2.02  20 2.04
 149  0.495  0.264  0.376-  23 1.94  30 1.96
 150  0.503  0.253  0.875-  31 1.94  22 1.95
 151  0.493  0.756  0.376-  32 1.92  25 2.07
 152  0.497  0.755  0.874-  24 1.94  33 2.02
 153  0.243  0.495  0.124-  44 1.97  36 1.97
 154  0.749  0.001  0.127-  46 1.99  38 2.03
 155  0.744  0.996  0.623-  39 1.99  47 2.03
 156  0.254  0.002  0.375-  35 2.03  42 2.03
 157  0.245  0.996  0.875-  43 2.02  34 2.03
 158  0.248  0.511  0.375-  44 1.93  37 2.05
 159  0.260  0.498  0.873-  36 1.93  45 2.06
 160  0.747  0.506  0.375-  41 2.03  48 2.04
 161  0.754  0.507  0.875-  40 2.02  49 2.04
 162  0.252  0.755  0.125-  60 2.02  52 2.04
 163  0.250  0.752  0.625-  61 2.04  53 2.04
 164  0.756  0.258  0.619-  55 1.90  63 2.04
 165  0.752  0.748  0.126-  64 2.02  56 2.04
 166  0.748  0.749  0.625-  57 2.01  65 2.05
 167  0.250  0.243  0.374-  51 2.03  58 2.03
 168  0.249  0.250  0.875-  50 2.01  59 2.04
 169  0.759  0.245  0.373-  55 1.93  62 2.04
 170  0.748  0.240  0.881-  54 1.95  63 2.01
 171  0.124  0.998  0.997-   2 2.00  34 2.03
 172  0.124  0.000  0.496-   3 1.94  35 1.95
 173  0.123  0.497  0.491-   5 2.01  37 2.03
 174  0.626  0.996  0.005-  38 2.01   6 2.05
 175  0.624  0.981  0.499-   7 1.94  39 1.99
 176  0.625  0.492  0.497-  41 2.02   9 2.06
 177  0.126  0.009  0.753-  11 1.92  43 2.05
 178  0.124  0.509  0.250-  12 2.02  44 2.04
 179  0.124  0.502  0.763-  45 1.95  13 2.04
 180  0.625  0.007  0.747-  47 1.94  15 2.04
 181  0.625  0.502  0.251-  48 2.02  16 2.04
 182  0.626  0.503  0.756-  17 1.94  49 2.03
 183  0.125  0.254  0.997-  18 2.00  50 2.05
 184  0.124  0.250  0.501-  19 1.93  51 2.01
 185  0.124  0.752  0.001-  52 1.96  20 1.97
 186  0.124  0.754  0.496-  21 1.96  53 1.97
 187  0.626  0.253  0.000-  22 2.03  54 2.03
 188  0.125  0.235  0.253-  26 1.95  58 1.99
 189  0.124  0.745  0.751-  61 1.93  29 2.02
 190  0.626  0.746  0.751-  33 1.93  65 2.03
 191  0.378  0.010  0.499-   7 1.91  35 1.99
 192  0.373  0.500  0.008-  36 2.02   8 2.03
 193  0.875  0.011  0.511-  39 1.94   3 1.96
 194  0.875  0.503  0.000-   4 2.02  40 2.06
 195  0.377  0.995  0.254-  14 2.00  42 2.05
 196  0.374  0.491  0.740-  45 1.97  17 1.97
 197  0.874  0.997  0.246-  46 2.00  10 2.05
 198  0.876  0.981  0.740-  11 1.99  47 2.00
 199  0.379  0.239  0.494-  51 1.95  23 2.01
 200  0.376  0.752  0.002-  52 1.94  24 2.01
 201  0.377  0.741  0.502-  53 1.95  25 2.01
 202  0.875  0.245  0.500-  19 1.93  55 2.04
 203  0.872  0.747  0.999-  20 1.94  56 2.02
 204  0.873  0.740  0.503-  21 1.94  57 2.03
 205  0.378  0.259  0.250-  58 1.95  30 2.02
 206  0.375  0.256  0.755-  59 2.00  31 2.07
 207  0.377  0.751  0.247-  32 2.01  60 2.05
 208  0.375  0.763  0.748-  33 1.97  61 1.97
 209  0.875  0.257  0.248-  26 1.94  62 2.04
 210  0.878  0.264  0.752-  27 2.03  63 2.03
 211  0.874  0.750  0.249-  64 1.98  28 2.05
 212  0.010  0.127  0.002-  18 2.02   2 2.05
 213  0.003  0.126  0.511-  19 1.91   3 2.08
 214  0.998  0.626  0.997-   4 2.02  20 2.04
 215  0.006  0.627  0.495-   5 1.93  21 2.02
 216  0.508  0.124  0.996-   6 2.01  22 2.08
 217  0.494  0.628  0.998-  24 2.01   8 2.05
 218  0.510  0.627  0.495-  25 1.96   9 1.99
 219  0.991  0.128  0.244-  10 1.94  26 2.03
 220  0.997  0.624  0.254-  28 1.94  12 2.01
 221  0.002  0.625  0.753-  13 1.97  29 1.97
 222  0.498  0.626  0.257-  32 1.94  16 2.00
 223  0.998  0.374  0.496-  19 1.94   5 2.00
 224  0.490  0.372  0.508-  23 1.97   9 1.98
 225  0.486  0.878  0.501-  25 1.96   7 2.02
 226  0.006  0.374  0.753-  13 1.93  27 2.04
 227  0.997  0.876  0.254-  10 1.97  28 1.98
 228  0.012  0.877  0.753-  29 1.94  11 2.04
 229  0.506  0.372  0.240-  16 1.96  30 2.01
 230  0.502  0.374  0.744-  31 2.02  17 2.03
 231  0.498  0.876  0.244-  32 1.93  14 2.05
 232  0.511  0.875  0.751-  15 2.03  33 2.05
 233  0.241  0.125  0.994-  34 1.96  50 1.97
 234  0.246  0.124  0.497-  35 2.02  51 2.05
 235  0.243  0.627  0.504-  53 2.00  37 2.05
 236  0.736  0.125  0.007-  54 1.95  38 1.96
 237  0.755  0.625  0.004-  56 1.93  40 1.95
 238  0.740  0.626  0.501-  57 1.96  41 1.98
 239  0.261  0.126  0.253-  42 1.93  58 2.04
 240  0.259  0.124  0.757-  43 1.97  59 1.98
 241  0.253  0.624  0.241-  60 1.93  44 2.04
 242  0.760  0.126  0.248-  62 1.95  46 1.95
 243  0.750  0.625  0.247-  64 1.93  48 1.95
 244  0.748  0.627  0.748-  65 1.96  49 1.97
 245  0.252  0.376  0.997-  50 1.93  36 2.03
 246  0.248  0.874  0.002-  34 1.93  52 2.04
 247  0.755  0.374  0.989-  54 1.94  40 1.96
 248  0.758  0.373  0.490-  41 1.95  55 2.02
 249  0.755  0.875  0.009-  38 1.94  56 1.96
 250  0.765  0.876  0.504-  57 1.94  39 2.03
 251  0.246  0.376  0.756-  59 1.94  45 2.03
 252  0.252  0.876  0.251-  42 1.96  60 1.98
 253  0.238  0.874  0.747-  43 1.93  61 2.05
 254  0.745  0.374  0.264-  62 1.94  48 1.95
 255  0.746  0.378  0.759-  49 1.90  63 2.05
 256  0.752  0.875  0.244-  64 1.94  46 1.95
 257  0.741  0.875  0.746-  65 1.91  47 2.06
 

IMPORTANT INFORMATION: All symmetrisations will be switched off!
NOSYMM: (Re-)initialisation of all symmetry stuff for point group C_1.

 
 
 KPOINTS: Title                                   

Automatic generation of k-mesh.
Space group operators:
 irot       det(A)        alpha          n_x          n_y          n_z        tau_x        tau_y        tau_z
    1     1.000000     0.000001     1.000000     0.000000     0.000000     0.000000     0.000000     0.000000
 
 Subroutine IBZKPT returns following result:
 ===========================================
 
 Found      4 irreducible k-points:
 
 Following reciprocal coordinates:
            Coordinates               Weight
  0.250000  0.250000  0.250000      2.000000
 -0.250000  0.250000  0.250000      2.000000
  0.250000 -0.250000  0.250000      2.000000
 -0.250000 -0.250000  0.250000      2.000000
 
 Following cartesian coordinates:
            Coordinates               Weight
  0.016206  0.016206  0.016206      2.000000
 -0.016206  0.016206  0.016206      2.000000
  0.016206 -0.016206  0.016206      2.000000
 -0.016206 -0.016206  0.016206      2.000000
 


--------------------------------------------------------------------------------------------------------




 Dimension of arrays:
   k-points           NKPTS =      4   k-points in BZ     NKDIM =      4   number of bands    NBANDS=   1164
   number of dos      NEDOS =   3001   number of ions     NIONS =    257
   non local maximal  LDIM  =      6   non local SUM 2l+1 LMDIM =     18
   total plane-waves  NPLWV = ******
   max r-space proj   IRMAX =   7595   max aug-charges    IRDMAX= 146383
   dimension x,y,z NGX =   120 NGY =  120 NGZ =  120
   dimension x,y,z NGXF=   240 NGYF=  240 NGZF=  240
   support grid    NGXF=   480 NGYF=  480 NGZF=  480
   ions per type =               1  64  64 128
   NGX,Y,Z   is equivalent  to a cutoff of  12.93, 12.93, 12.93 a.u.
   NGXF,Y,Z  is equivalent  to a cutoff of  25.86, 25.86, 25.86 a.u.

 SYSTEM =  LTO                                     
 POSCAR =  config 52                               

 Startparameter for this run:
   NWRITE =      2    write-flag & timer
   PREC   = accura    normal or accurate (medium, high low for compatibility)
   ISTART =      1    job   : 0-new  1-cont  2-samecut
   ICHARG =      0    charge: 1-file 2-atom 10-const
   ISPIN  =      2    spin polarized calculation?
   LNONCOLLINEAR =      F non collinear calculations
   LSORBIT =      F    spin-orbit coupling
   INIWAV =      1    electr: 0-lowe 1-rand  2-diag
   LASPH  =      T    aspherical Exc in radial PAW
   METAGGA=      F    non-selfconsistent MetaGGA calc.

 Electronic Relaxation 1
   ENCUT  =  500.0 eV  36.75 Ry    6.06 a.u.  28.13 28.13 28.13*2*pi/ulx,y,z
   ENINI  =  500.0     initial cutoff
   ENAUG  =  628.9 eV  augmentation charge cutoff
   NELM   =     60;   NELMIN=  2; NELMDL=  0     # of ELM steps 
   EDIFF  = 0.1E-05   stopping-criterion for ELM
   LREAL  =      T    real-space projection
   NLSPLINE    = F    spline interpolate recip. space projectors
   LCOMPAT=      F    compatible to vasp.4.4
   GGA_COMPAT  = T    GGA compatible to vasp.4.4-vasp.4.6
   LMAXPAW     = -100 max onsite density
   LMAXMIX     =    4 max onsite mixed and CHGCAR
   VOSKOWN=      0    Vosko Wilk Nusair interpolation
   ROPT   =   -0.00010  -0.00010  -0.00010  -0.00010
 Ionic relaxation
   EDIFFG = -.5E-01   stopping-criterion for IOM
   NSW    =    100    number of steps for IOM
   NBLOCK =      1;   KBLOCK =    100    inner block; outer block 
   IBRION =      1    ionic relax: 0-MD 1-quasi-New 2-CG
   NFREE  =      0    steps in history (QN), initial steepest desc. (CG)
   ISIF   =      2    stress and relaxation
   IWAVPR =     11    prediction:  0-non 1-charg 2-wave 3-comb
   ISYM   =      0    0-nonsym 1-usesym 2-fastsym
   LCORR  =      T    Harris-Foulkes like correction to forces

   POTIM  = 0.5000    time-step for ionic-motion
   TEIN   =    0.0    initial temperature
   TEBEG  =    0.0;   TEEND  =   0.0 temperature during run
   SMASS  =  -3.00    Nose mass-parameter (am)
   estimated Nose-frequenzy (Omega)   =  0.10E-29 period in steps =****** mass=  -0.544E-26a.u.
   SCALEE = 1.0000    scale energy and forces
   NPACO  =    256;   APACO  = 16.0  distance and # of slots for P.C.
   PSTRESS=    0.0 pullay stress

  Mass of Ions in am
   POMASS =   7.01 47.88 16.00 19.00
  Ionic Valenz
   ZVAL   =   3.00 10.00  6.00  7.00
  Atomic Wigner-Seitz radii
   RWIGS  =  -1.00 -1.00 -1.00 -1.00
  virtual crystal weights 
   VCA    =   1.00  1.00  1.00  1.00
   NELECT =    1923.0000    total number of electrons
   NUPDOWN=       1.0000    fix difference up-down

 DOS related values:
   EMIN   =  10.00;   EMAX   =-10.00  energy-range for DOS
   EFERMI =   0.00
   ISMEAR =     0;   SIGMA  =   0.01  broadening in eV -4-tet -1-fermi 0-gaus

 Electronic relaxation 2 (details)
   IALGO  =     38    algorithm
   LDIAG  =      T    sub-space diagonalisation (order eigenvalues)
   LSUBROT=      F    optimize rotation matrix (better conditioning)
   TURBO    =      0    0=normal 1=particle mesh
   IRESTART =      0    0=no restart 2=restart with 2 vectors
   NREBOOT  =      0    no. of reboots
   NMIN     =      0    reboot dimension
   EREF     =   0.00    reference energy to select bands
   IMIX   =      4    mixing-type and parameters
     AMIX     =   0.40;   BMIX     =  1.00
     AMIX_MAG =   1.60;   BMIX_MAG =  1.00
     AMIN     =   0.10
     WC   =   100.;   INIMIX=   1;  MIXPRE=   1;  MAXMIX= -45

 Intra band minimization:
   WEIMIN = 0.0010     energy-eigenvalue tresh-hold
   EBREAK =  0.21E-09  absolut break condition
   DEPER  =   0.30     relativ break condition  

   TIME   =   0.40     timestep for ELM

  volume/ion in A,a.u.               =      14.28        96.39
  Fermi-wavevector in a.u.,A,eV,Ry     =   1.319690  2.493853 23.695660  1.741582
  Thomas-Fermi vector in A             =   2.449570
 
 Write flags
   LWAVE        =      T    write WAVECAR
   LDOWNSAMPLE  =      F    k-point downsampling of WAVECAR
   LCHARG       =      T    write CHGCAR
   LVTOT        =      F    write LOCPOT, total local potential
   LVHAR        =      F    write LOCPOT, Hartree potential only
   LELF         =      F    write electronic localiz. function (ELF)
   LORBIT       =     11    0 simple, 1 ext, 2 COOP (PROOUT), +10 PAW based schemes


 Dipole corrections
   LMONO  =      F    monopole corrections only (constant potential shift)
   LDIPOL =      F    correct potential (dipole corrections)
   IDIPOL =      0    1-x, 2-y, 3-z, 4-all directions 
   EPSILON=  1.0000000 bulk dielectric constant

 LDA+U is selected, type is set to LDAUTYPE =  2
   angular momentum for each species LDAUL =    -1    2   -1   -1
   U (eV)           for each species LDAUU =   0.0  4.2  0.0  0.0
   J (eV)           for each species LDAUJ =   0.0  0.0  0.0  0.0
 Exchange correlation treatment:
   GGA     =    PS    GGA type
   LEXCH   =    14    internal setting for exchange type
   VOSKOWN=      0    Vosko Wilk Nusair interpolation
   LHFCALC =     F    Hartree Fock is set to
   LHFONE  =     F    Hartree Fock one center treatment
   AEXX    =    0.0000 exact exchange contribution

 Linear response parameters
   LEPSILON=     F    determine dielectric tensor
   LRPA    =     F    only Hartree local field effects (RPA)
   LNABLA  =     F    use nabla operator in PAW spheres
   LVEL    =     F    velocity operator in full k-point grid
   LINTERFAST=   F  fast interpolation
   KINTER  =     0    interpolate to denser k-point grid
   CSHIFT  =0.1000    complex shift for real part using Kramers Kronig
   OMEGAMAX=  -1.0    maximum frequency
   DEG_THRESHOLD= 0.2000000E-02 threshold for treating states as degnerate
   RTIME   =   -0.100 relaxation time in fs
  (WPLASMAI=    0.000 imaginary part of plasma frequency in eV, 0.658/RTIME)
   DFIELD  = 0.0000000 0.0000000 0.0000000 field for delta impulse in time
 
 Orbital magnetization related:
   ORBITALMAG=     F  switch on orbital magnetization
   LCHIMAG   =     F  perturbation theory with respect to B field
   DQ        =  0.001000  dq finite difference perturbation B field
   LLRAUG    =     F  two centre corrections for induced B field



--------------------------------------------------------------------------------------------------------


 quasi-Newton-method for relaxation of ions
 charge density and potential will be updated during run
 spin polarized calculation
 Variant of blocked Davidson
 Davidson routine will perform the subspace rotation
 perform sub-space diagonalisation
    after iterative eigenvector-optimisation
 modified Broyden-mixing scheme, WC =      100.0
 initial mixing is a Kerker type mixing with AMIX =  0.4000 and BMIX =      1.0000
 Hartree-type preconditioning will be used
 using additional bands          202
 real space projection scheme for non local part
 use partial core corrections
 calculate Harris-corrections to forces 
   (improved forces if not selfconsistent)
 use gradient corrections 
 use of overlap-Matrix (Vanderbilt PP)
 Gauss-broadening in eV      SIGMA  =   0.01


--------------------------------------------------------------------------------------------------------


  energy-cutoff  :      500.00
  volume of cell :     3671.03
      direct lattice vectors                 reciprocal lattice vectors
    15.426331000  0.000000000  0.000000000     0.064824228  0.000000000  0.000000000
     0.000000000 15.426331000  0.000000000     0.000000000  0.064824228  0.000000000
     0.000000000  0.000000000 15.426331000     0.000000000  0.000000000  0.064824228

  length of vectors
    15.426331000 15.426331000 15.426331000     0.064824228  0.064824228  0.064824228


 
 old parameters found on file WAVECAR:
  energy-cutoff  :      500.00
  volume of cell :     3671.03
      direct lattice vectors                 reciprocal lattice vectors
    15.426331000  0.000000000  0.000000000     0.064824228  0.000000000  0.000000000
     0.000000000 15.426331000  0.000000000     0.000000000  0.064824228  0.000000000
     0.000000000  0.000000000 15.426331000     0.000000000  0.000000000  0.064824228

  length of vectors

 
 k-points in units of 2pi/SCALE and weight: Title                                   
   0.01620606  0.01620606  0.01620606       0.250
  -0.01620606  0.01620606  0.01620606       0.250
   0.01620606 -0.01620606  0.01620606       0.250
  -0.01620606 -0.01620606  0.01620606       0.250
 
 k-points in reciprocal lattice and weights: Title                                   
   0.25000000  0.25000000  0.25000000       0.250
  -0.25000000  0.25000000  0.25000000       0.250
   0.25000000 -0.25000000  0.25000000       0.250
  -0.25000000 -0.25000000  0.25000000       0.250
 
 position of ions in fractional coordinates (direct lattice) 
   0.87409599  0.07634179  0.88331052
   0.99466332  0.99501080  0.99602069
   0.99883773  0.99230559  0.49286039
   0.00514004  0.49492045  0.99711090
   0.99395962  0.50300278  0.50713127
   0.49273289  0.99482404  0.00001868
   0.50153727  0.00845913  0.49959011
   0.50351240  0.49504650  0.99583157
   0.49165870  0.49960753  0.49514516
   0.00631213  0.00356504  0.25657389
   0.00157385  0.00816582  0.75459830
   0.99356970  0.49384953  0.25135517
   0.99320901  0.49850606  0.74161295
   0.50587236  0.00877445  0.25088112
   0.49259459  0.00589017  0.75174733
   0.49257122  0.49671430  0.25712072
   0.50020383  0.50505654  0.75830929
   0.99499871  0.25700894  0.00075787
   0.99931774  0.24793697  0.49070973
   0.99724608  0.75743505  0.00629859
   0.99717320  0.75721520  0.50618039
   0.49421895  0.25785099  0.00058871
   0.50844754  0.24594997  0.49937900
   0.50647246  0.75723330  0.99947721
   0.50689116  0.75331444  0.50902707
   0.00023901  0.25840107  0.25507573
   0.00792788  0.24227809  0.74594880
   0.00688551  0.74906830  0.24349523
   0.99337282  0.75237876  0.74376683
   0.50790451  0.24191501  0.25132314
   0.50852747  0.24341295  0.74958356
   0.50671477  0.75154875  0.25205095
   0.50109007  0.74289300  0.74375717
   0.25559253  0.99919150  0.00596027
   0.25010585  0.99398516  0.50667385
   0.24289480  0.50746774  0.99727113
   0.25428778  0.49474807  0.50639679
   0.75547814  0.99999309  0.99570389
   0.75022282  0.00708448  0.49389989
   0.74164023  0.49953730  0.00485056
   0.75525953  0.49839317  0.50552754
   0.24435497  0.00264629  0.24390003
   0.25843229  0.99697716  0.74438113
   0.25488884  0.49220946  0.25150362
   0.24771839  0.50646570  0.74081968
   0.74466552  0.00026728  0.25624999
   0.75029721  0.00857426  0.75315289
   0.75547017  0.49868115  0.24269152
   0.75706182  0.49917407  0.74262194
   0.25723198  0.25112848  0.00513115
   0.25380658  0.25703623  0.50474923
   0.25120550  0.74266464  0.99337153
   0.25200492  0.75564050  0.49275407
   0.75712149  0.24973799  0.00683003
   0.74252232  0.24295157  0.49768354
   0.74183759  0.74950393  0.99459375
   0.74158761  0.75285501  0.49456825
   0.25131074  0.25786368  0.24315733
   0.24611694  0.25076725  0.74291840
   0.24403710  0.74808992  0.25569601
   0.24911510  0.74185633  0.75637745
   0.74289198  0.25073248  0.24219272
   0.74826021  0.24518042  0.75059953
   0.74565902  0.74996593  0.25727922
   0.75742151  0.75296074  0.75733340
   0.00918121  0.49980704  0.62439622
   0.99385303  0.00858103  0.37602199
   0.98678914  0.01065715  0.87232624
   0.49872138  0.49273113  0.37512195
   0.49330512  0.49647942  0.87468126
   0.99883080  0.74965154  0.12531649
   0.00124011  0.74997417  0.62444226
   0.50130560  0.75194236  0.62467592
   0.99866316  0.24447596  0.37591554
   0.25157788  0.00318778  0.12508590
   0.25089832  0.00308676  0.62526556
   0.23842092  0.49575941  0.62550526
   0.74954351  0.49162977  0.12568622
   0.74508050  0.49591842  0.62387082
   0.75275173  0.99758167  0.37576847
   0.75815795  0.00170201  0.87665270
   0.24831813  0.24981517  0.12523420
   0.25494793  0.24954187  0.62452667
   0.74799860  0.25887978  0.12663921
   0.25419425  0.74646932  0.37438507
   0.25167107  0.75255470  0.87506009
   0.75226504  0.75230831  0.37454811
   0.74873246  0.75298353  0.87625649
   0.12384565  0.49916221  0.99375084
   0.62548864  0.50240515  0.99734491
   0.12490327  0.00454863  0.25316160
   0.62489706  0.00291030  0.25159608
   0.62411260  0.25953590  0.49736448
   0.62440570  0.74837953  0.00331787
   0.62458058  0.76444752  0.49649046
   0.12545975  0.24267491  0.74643770
   0.12516583  0.75033176  0.25142856
   0.62538877  0.24315411  0.25718151
   0.62322601  0.24354698  0.74298525
   0.62279661  0.75184471  0.25127899
   0.37499028  0.00397206  0.99437995
   0.37515645  0.50762825  0.50449126
   0.87337277  0.01683567  0.00113375
   0.87536079  0.50487995  0.50021221
   0.37571581  0.98755143  0.75365473
   0.37364535  0.49497029  0.24779864
   0.87560518  0.49583484  0.25145213
   0.87571587  0.49988932  0.74539380
   0.37528071  0.24416819  0.00024649
   0.87469504  0.23866218  0.99974340
   0.87542356  0.75474252  0.74994593
   0.51236868  0.12265782  0.49364108
   0.98648001  0.12545752  0.74158520
   0.49320762  0.12501103  0.26402163
   0.49167107  0.12282073  0.74936755
   0.49418033  0.62617390  0.75120448
   0.99457009  0.37473567  0.00108654
   0.99385672  0.87582265  0.99728221
   0.99219644  0.87548767  0.49589767
   0.49820364  0.37404945  0.00831095
   0.49924201  0.87582977  0.00614757
   0.00859135  0.37408603  0.24946051
   0.24989226  0.62529495  0.00162636
   0.73896421  0.12447007  0.50117324
   0.25607689  0.62484077  0.74935744
   0.77236259  0.11961354  0.75025779
   0.25477289  0.37341093  0.49327504
   0.25536668  0.87589045  0.49912012
   0.24035901  0.37461567  0.25602608
   0.00099130  0.99999685  0.12627947
   0.00662810  0.99580281  0.62381076
   0.00157688  0.50586754  0.12484403
   0.49665891  0.00912846  0.12642635
   0.50179337  0.99677952  0.62296819
   0.50286621  0.50828862  0.12730753
   0.50787776  0.50200146  0.62438240
   0.00253323  0.49960872  0.37583476
   0.99431533  0.50079793  0.87273188
   0.50045220  0.98756872  0.37681039
   0.51185551  0.99747166  0.87550162
   0.00353134  0.24773103  0.12681234
   0.99760777  0.25968106  0.62076936
   0.50293695  0.23761034  0.12682462
   0.49079162  0.24619861  0.62220524
   0.49592599  0.74456847  0.12709596
   0.99930469  0.24543731  0.87367777
   0.99475777  0.74823955  0.37505927
   0.00204459  0.74850605  0.87432024
   0.49454146  0.26380009  0.37568396
   0.50346067  0.25314227  0.87492653
   0.49279961  0.75621134  0.37568043
   0.49734469  0.75476156  0.87436485
   0.24340696  0.49459579  0.12446563
   0.74884228  0.00146156  0.12731230
   0.74395788  0.99584247  0.62255483
   0.25402663  0.00175514  0.37533385
   0.24508529  0.99562572  0.87453913
   0.24805148  0.51140937  0.37495364
   0.25957985  0.49772274  0.87344869
   0.74699916  0.50619621  0.37467040
   0.75358032  0.50704973  0.87459579
   0.25165541  0.75490022  0.12485113
   0.24951637  0.75160246  0.62479288
   0.75638276  0.25790298  0.61917640
   0.75224266  0.74822866  0.12635595
   0.74795483  0.74923383  0.62470353
   0.24998006  0.24333726  0.37401053
   0.24865773  0.25045707  0.87498863
   0.75917336  0.24454039  0.37344785
   0.74845065  0.24003396  0.88088505
   0.12429650  0.99754900  0.99748130
   0.12448484  0.00028217  0.49598806
   0.12335690  0.49691129  0.49112644
   0.62574223  0.99578871  0.00487474
   0.62402847  0.98140109  0.49948833
   0.62505520  0.49170722  0.49679240
   0.12631134  0.00913084  0.75288820
   0.12389542  0.50940908  0.25003645
   0.12366948  0.50203096  0.76342588
   0.62469810  0.00660118  0.74666512
   0.62486151  0.50189945  0.25081665
   0.62606568  0.50251521  0.75588451
   0.12457000  0.25407629  0.99716812
   0.12400455  0.25006278  0.50072283
   0.12442796  0.75158508  0.00053894
   0.12406653  0.75417504  0.49634640
   0.62554845  0.25332601  0.00040680
   0.12464738  0.23549937  0.25260898
   0.12391979  0.74532588  0.75051878
   0.62616758  0.74637958  0.75115945
   0.37765417  0.01049924  0.49897147
   0.37287691  0.49994688  0.00805680
   0.87465230  0.01117579  0.51089769
   0.87474093  0.50321333  0.00047777
   0.37687076  0.99460516  0.25352979
   0.37446318  0.49139155  0.74014368
   0.87411968  0.99742385  0.24575708
   0.87639377  0.98071142  0.73975095
   0.37873575  0.23915136  0.49405557
   0.37603659  0.75245747  0.00242616
   0.37718026  0.74106105  0.50184340
   0.87491030  0.24511241  0.50029478
   0.87240529  0.74695001  0.99949938
   0.87250098  0.73980382  0.50309071
   0.37783182  0.25868027  0.24956257
   0.37498913  0.25648392  0.75468873
   0.37671244  0.75091267  0.24730707
   0.37506221  0.76318848  0.74848786
   0.87465022  0.25674664  0.24845509
   0.87838637  0.26364138  0.75173845
   0.87386493  0.75000014  0.24919896
   0.00961553  0.12690385  0.00186473
   0.00285450  0.12556379  0.51088738
   0.99836735  0.62579617  0.99666765
   0.00582203  0.62703997  0.49539957
   0.50806693  0.12407340  0.99620580
   0.49403033  0.62763517  0.99839434
   0.51042132  0.62702216  0.49501788
   0.99050012  0.12762819  0.24364893
   0.99650549  0.62393142  0.25356211
   0.00219399  0.62523178  0.75257350
   0.49827186  0.62627691  0.25657896
   0.99776852  0.37379338  0.49563807
   0.49024333  0.37221274  0.50792825
   0.48563910  0.87830982  0.50059990
   0.00620161  0.37429668  0.75320884
   0.99700877  0.87639646  0.25367437
   0.01160118  0.87655873  0.75262261
   0.50554603  0.37179109  0.23969610
   0.50229927  0.37415961  0.74366861
   0.49816052  0.87631094  0.24434757
   0.51054219  0.87549073  0.75098322
   0.24097072  0.12477637  0.99382914
   0.24641600  0.12438089  0.49667505
   0.24267719  0.62681322  0.50449602
   0.73602715  0.12508973  0.00684667
   0.75480082  0.62524104  0.00433526
   0.74023194  0.62605160  0.50099710
   0.26116826  0.12643474  0.25302392
   0.25943220  0.12403532  0.75671257
   0.25298999  0.62397459  0.24093084
   0.76049854  0.12565359  0.24831876
   0.74962184  0.62506830  0.24726283
   0.74817690  0.62650704  0.74775429
   0.25241790  0.37608165  0.99719821
   0.24845105  0.87441344  0.00240804
   0.75475627  0.37442142  0.98855496
   0.75769903  0.37282179  0.48959465
   0.75545955  0.87467683  0.00938102
   0.76456576  0.87642690  0.50403384
   0.24577909  0.37571849  0.75577967
   0.25238917  0.87587052  0.25142244
   0.23771060  0.87360337  0.74677571
   0.74519177  0.37427072  0.26430797
   0.74564895  0.37772912  0.75865926
   0.75206982  0.87502916  0.24357239
   0.74117441  0.87529497  0.74590350
 
 position of ions in cartesian coordinates  (Angst):
  13.48409401  1.17767371 13.62624048
  15.34400557 15.34936589 15.36494483
  15.40840151 15.30763452  7.60302749
   0.07929196  7.63480660 15.38176279
  15.33315014  7.75948737  7.82317490
   7.60106064 15.34648499  0.00028815
   7.73687987  0.13049338  7.70684243
   7.76734890  7.63675109 15.36202739
   7.58448982  7.70711115  7.63827319
   0.09737306  0.05499545  3.95799375
   0.02427879  0.12596864 11.64068317
  15.32713506  7.61828625  3.87748804
  15.32157096  7.69011953 11.44036678
   7.80375442  0.13535751  3.87017523
   7.59892714  0.09086368 11.59670314
   7.59856669  7.66247924  3.96642931
   7.71630984  7.79116942 11.69793018
  15.34917939  3.96470496  0.01169117
  15.41580629  3.82475775  7.56985075
  15.38384812 11.68444381  0.09716419
  15.38272390 11.68105238  7.80850632
   7.62398517  3.97769471  0.00908163
   7.84348000  3.79410562  7.70358573
   7.81301173 11.68133155 15.41826621
   7.81947088 11.62087797  7.85242003
   0.00368701  3.98618043  3.93488265
   0.12229806  3.73746194 11.50725312
   0.10621810 11.55537556  3.75623806
  15.32409788 11.60644378 11.47359329
   7.83510310  3.73186102  3.87699392
   7.84471306  3.75496869 11.56332408
   7.81674984 11.59363978  3.88822146
   7.72998123 11.46011339 11.47344436
   3.94285497 15.41385887  0.09194516
   3.85821563 15.33354413  7.81611846
   3.74697560  7.82836536 15.38423460
   3.92272748  7.63214755  7.81184454
  11.65425579 15.42622441 15.36005780
  11.57318560  0.10928756  7.61906312
  11.44078770  7.70602772  0.07482632
  11.65088356  7.68837797  7.79843516
   3.76950069  0.04082256  3.76248264
   3.98666200 15.37969970 11.48306975
   3.93199969  7.59298605  3.87977810
   3.82138591  7.81290751 11.42812954
  11.48745681  0.00412308  3.95299723
  11.57433307  0.13226940 11.61838576
  11.65413297  7.69282046  3.74383965
  11.67868621  7.70042436 11.45593180
   3.96814567  3.87399112  0.07915482
   3.91530426  3.96512593  7.78642876
   3.87517927 11.45659049 15.32407809
   3.88751132 11.65676047  7.60138741
  11.67960669  3.85254097  0.10536228
  11.45439514  3.74785136  7.67743105
  11.44383216 11.56209573 15.34293244
  11.43997600 11.61379058  7.62937353
   3.87680259  3.97789042  3.75102541
   3.79668139  3.86841859 11.46050514
   3.76459711 11.54028268  3.94445132
   3.84293193 11.44412136 11.66812890
  11.46009751  3.86788226  3.73614507
  11.54290964  3.78223425 11.57899673
  11.50278281 11.56922269  3.96887436
  11.68423493 11.61542153 11.68287573
   0.14163238  7.71018888  9.63214278
  15.33150574  0.13237376  5.80063974
  15.22253587  0.16440068 13.45679333
   7.69344109  7.60103354  5.78675534
   7.60988801  7.65885584 13.49312264
  15.40829449 11.56437277  1.93317371
   0.01913041 11.56934978  9.63285300
   7.73330618 11.59971180  9.63645754
  15.40570852  3.77136712  5.79899753
   3.88092359  0.04917580  1.92961655
   3.87044061  0.04761732  9.64555342
   3.67795998  7.64774873  9.64925118
  11.56270627  7.58404358  1.93887721
  11.49385843  7.65020172  9.62403780
  11.61219740 15.38902501  5.79672882
  11.69559544  0.02625576 13.52353465
   3.83063762  3.85373148  1.93190429
   3.93291109  3.84951553  9.63415518
  11.53887401  3.99356514  1.95357840
   3.92128459 11.51528283  5.77538806
   3.88236116 11.60915789 13.49896665
  11.60468943 11.60535704  5.77790306
  11.55019476 11.61577323 13.51742264
   1.91048399  7.70024154 15.32992945
   9.64899486  7.75026817 15.38537268
   1.92679912  0.07016874  3.90535464
   9.63986892  0.04489532  3.88120439
   9.62776757  4.00368675  7.67250915
   9.63228901 11.54475039  0.05118252
   9.63498678 11.79262046  7.65902612
   1.93538356  3.74358344 11.51479509
   1.93084950 11.57486615  3.87862012
   9.64745410  3.75097572  3.96736716
   9.61409075  3.75703630 11.46153638
   9.60746664 11.59820532  3.87631288
   5.78472416  0.06127427 15.33963421
   5.78728760  7.83084143  7.78244924
  13.47293749  0.25971266  0.01748963
  13.50360530  7.78844517  7.71643917
   5.79591644 15.23429530 11.62612738
   5.76397685  7.63557559  3.82262378
  13.50737536  7.64891234  3.87898379
  13.50908280  7.71145810 11.49869152
   5.78920442  3.76661939  0.00380241
  13.49333515  3.68168186 15.42237265
  13.50457356 11.64290789 11.56891413
   7.90396886  1.89216018  7.61507066
  15.21776716  1.93534917 11.43993870
   7.60838406  1.92846148  4.07288500
   7.58468072  1.89467326 11.55999192
   7.62338929  9.65956584 11.58832891
  15.34256748  5.78079653  0.01676134
  15.33156280 13.51073013 15.38440540
  15.30595066 13.50556258  7.64988154
   7.68545422  5.77021065  0.12820753
   7.70147252 13.51083992  0.09483444
   0.13253301  5.77077496  3.84826047
   3.85492078  9.64600690  0.02508879
  11.39950649  1.92011651  7.73126426
   3.95032690  9.63900049 11.55983598
  11.91472094  1.84519806 11.57372500
   3.93021090  5.76036054  7.60942402
   3.93937095 13.51177602  7.69959216
   3.70785767  5.77894527  3.94954306
   0.01529215 15.42628237  1.94802897
   0.10224730 15.36158374  9.62311121
   0.02432544  7.80368005  1.92588528
   7.66162481  0.14081867  1.95029475
   7.74083055 15.37665085  9.61011344
   7.75738066  7.84102845  1.96388805
   7.83469044  7.74404064  9.63192964
   0.03907839  7.70712956  5.79775144
  15.33863734  7.72547469 13.46305081
   7.72014121 15.23456201  5.81280183
   7.89605258 15.38732793 13.50577772
   0.05447559  3.82158094  1.95624908
  15.38942761  4.00592596  9.57619358
   7.75847191  3.66545573  1.95643856
   7.57111402  3.79794131  9.59834400
   7.65031848 11.48595968  1.96062428
  15.41560488  3.78619712 13.47764250
  15.34546260 11.54259104  5.78578840
   0.03154057 11.54670213 13.48755342
   7.62896021  4.06946751  5.79542509
   7.76655100  3.90505648 13.49690620
   7.60208995 11.66556641  5.79537067
   7.67220381 11.64320166 13.48824155
   3.75487638  7.62979834  1.92004807
  11.55188889  0.02254650  1.96396162
  11.47654048 15.36219552  9.60373686
   3.91869892  0.02707538  5.79002423
   3.78076680 15.35885193 13.49093002
   3.82652427  7.88917015  5.78415895
   4.00436474  7.67803566 13.47410867
  11.52345628  7.80875024  5.77978956
  11.62497938  7.82191696 13.49180417
   3.88211960 11.64534068  1.92599483
   3.84912208 11.59446837  9.63826180
  11.66821082  3.97849670  9.55162016
  11.60434428 11.54242298  1.94920869
  11.53819885 11.55792909  9.63688341
   3.85627521  3.75380105  5.76961024
   3.83587638  3.86363362 13.49786424
  11.71125951  3.77236098  5.76093017
  11.54584744  3.70284331 13.58882434
   1.91743902 15.38852109 15.38747676
   1.92034430  0.00435289  7.65127597
   1.90294435  7.66551810  7.57627902
   9.65290671 15.36136631  0.07519938
   9.62646973 15.13941811  7.70527237
   9.64230837  7.58523839  7.66368405
   1.94852051  0.14085540 11.61430253
   1.91125170  7.85831313  3.85714503
   1.90776636  7.74449575 11.77686025
   9.63679963  0.10183198 11.51830327
   9.63932047  7.74246708  3.86918061
   9.65789641  7.75196595 11.66052458
   1.92165805  3.91946496 15.38264544
   1.91293530  3.85755116  7.72431606
   1.91946693 11.59420029  0.00831394
   1.91389133 11.63415383  7.65680379
   9.64991748  3.90789082  0.00627539
   1.92285176  3.63289119  3.89682966
   1.91162765 11.49764366 11.57775113
   9.65946836 11.51389841 11.58763438
   5.82581815  0.16196472  7.69729909
   5.75212260  7.71234604  0.12428680
  13.49267590  0.17240146  7.88127684
  13.49404311  7.76273540  0.00737021
   5.81373304 15.34310837  3.91103452
   5.77659298  7.58036865 11.41770143
  13.48445952 15.38659043  3.79113002
  13.51954038 15.12877896 11.41164298
   5.84250298  3.68922798  7.62146472
   5.80086496 11.60765806  0.03742669
   5.81850748 11.43185298  7.74160235
  13.49665593  3.78118513  7.71771291
  13.45801270 11.52269806 15.41860820
  13.45948887 11.41245861  7.76084379
   5.82855875  3.99048748  3.84983474
   5.78470638  3.95660589 11.64207821
   5.81129072 11.58382732  3.81504079
   5.78583376 11.77319809 11.54642154
  13.49264385  3.96065862  3.83275049
  13.55027892  4.06701912 11.59656622
  13.48052972 11.56975042  3.84422559
   0.14833242  1.95766078  0.02876587
   0.04403454  1.93698863  7.88111781
  15.40114523  9.65373887 15.37492504
   0.08981256  9.67292609  7.64219770
   7.83760868  1.91399741 15.36780045
   7.62107541  9.68210790 15.40156154
   7.87392823  9.67265142  7.63630973
  15.27978266  1.96883467  3.75860906
  15.37242350  9.62497256  3.91153311
   0.03384526  9.64503244 11.60944791
   7.68650657  9.66115495  3.95807190
  15.39190744  5.76626035  7.64587690
   7.56265586  5.74187689  7.83546937
   7.49162951 13.54909797  7.72241979
   0.09566805  5.77402441 11.61924887
  15.38018737 13.51958185  3.91326480
   0.17896367 13.52208514 11.61020547
   7.79872036  5.73537235  3.69763142
   7.74863474  5.77190997 11.47207806
   7.68478913 13.51826262  3.76938643
   7.87579284 13.50560978 11.58491574
   3.71729409  1.92484154 15.33113720
   3.80129482  1.91874081  7.66187376
   3.74361872  9.66942822  7.78252256
  11.35419841  1.92967554  0.10561895
  11.64380732  9.64517527  0.06687719
  11.41906297  9.65767923  7.72854717
   4.02886808  1.95042415  3.90323076
   4.00208704  1.91340988 11.67329860
   3.90270726  9.62563854  3.71667883
  11.73170216  1.93837388  3.83064734
  11.56391464  9.64251044  3.81435827
  11.54162458  9.66470497 11.53510520
   3.89388202  5.80156002 15.38310961
   3.83268810 13.48899116  0.03714718
  11.64312000  5.77594877 15.24977607
  11.68851610  5.75127228  7.55264917
  11.65396905 13.49305428  0.14471472
  11.79444455 13.52005140  7.77539290
   3.79146962  5.79595778 11.65890741
   3.89343881 13.51146859  3.87852571
   3.66700240 13.47649478 11.52000935
  11.49557487  5.77362396  4.07730217
  11.50262745  5.82697445 11.70332880
  11.60167792 13.49848952  3.75742826
  11.43360183 13.50258996 11.50655428
 


--------------------------------------------------------------------------------------------------------


 k-point  1 :   0.2500 0.2500 0.2500  plane waves:   93161
 k-point  2 :  -0.2500 0.2500 0.2500  plane waves:   93161
 k-point  3 :   0.2500-0.2500 0.2500  plane waves:   93161
 k-point  4 :  -0.2500-0.2500 0.2500  plane waves:   93161

 maximum and minimum number of plane-waves per node :     11686    11606

 maximum number of plane-waves:     93161
 maximum index in each direction: 
   IXMAX=   28   IYMAX=   28   IZMAX=   27
   IXMIN=  -28   IYMIN=  -28   IZMIN=  -28


 real space projection operators:
  total allocation   :     105567.25 KBytes
  max/ min on nodes  :      13235.61      13159.20


 parallel 3D FFT for wavefunctions:
    minimum data exchange during FFTs selected (reduces bandwidth)
 parallel 3D FFT for charge:
    minimum data exchange during FFTs selected (reduces bandwidth)


 total amount of memory used by VASP MPI-rank0   291508. kBytes
=======================================================================

   base      :      30000. kBytes
   nonlr-proj:      49473. kBytes
   fftplans  :      27976. kBytes
   grid      :      34041. kBytes
   one-center:       1026. kBytes
   wavefun   :     148992. kBytes
 
     INWAV:  cpu time   52.4108: real time   52.9954
 Broyden mixing: mesh for mixing (old mesh)
   NGX = 57   NGY = 57   NGZ = 57
  (NGX  =240   NGY  =240   NGZ  =240)
  gives a total of 185193 points

 charge density for first step will be calculated from the start-wavefunctions


--------------------------------------------------------------------------------------------------------


 Maximum index for non-local projection operator          970
 Maximum index for augmentation-charges         3290 (set IRDMAX)


--------------------------------------------------------------------------------------------------------


 initial charge from wavefunction
 First call to EWALD:  gamma=   0.115
 Maximum number of real-space cells 3x 3x 3
 Maximum number of reciprocal cells 3x 3x 3

    FEWALD:  cpu time    0.0157: real time    0.0162


--------------------------------------- Iteration      1(   1)  ---------------------------------------


    POTLOK:  cpu time    0.2680: real time    0.2761
    SETDIJ:  cpu time    1.3991: real time    1.4218
     EDDAV:  cpu time  133.1116: real time  133.9312
       DOS:  cpu time    0.0028: real time    0.0029
    CHARGE:  cpu time    5.3505: real time    5.3513
    MIXING:  cpu time    0.0072: real time    0.0074
    --------------------------------------------
      LOOP:  cpu time  140.1394: real time  140.9908

 eigenvalue-minimisations  : 23232
 total energy-change (2. order) :-0.1860887E+04  (-0.3586854E+03)
 number of electron    1923.0000030 magnetization       1.0000000
 augmentation part      506.0643001 magnetization       0.6484751

 Broyden mixing:
  rms(total) = 0.92125E+01    rms(broyden)= 0.92091E+01
  rms(prec ) = 0.14322E+02
  weight for this iteration     100.00

 Free energy of the ion-electron system (eV)
  ---------------------------------------------------
  alpha Z        PSCENC =      6118.73324990
  Ewald energy   TEWEN  =   -103238.00792310
  -Hartree energ DENC   =    -65388.40533475
  -exchange      EXHF   =         0.00000000
  -V(xc)+E(xc)   XCENC  =      8960.35778505
  PAW double counting   =    198628.42081943  -199624.58284197
  entropy T*S    EENTRO =        -0.00139105
  eigenvalues    EBANDS =    -25894.65426252
  atomic energy  EATOM  =    178577.25249613
  Solvation  Ediel_sol  =         0.00000000
  ---------------------------------------------------
  free energy    TOTEN  =     -1860.88740287 eV

  energy without entropy =    -1860.88601182  energy(sigma->0) =    -1860.88670735


--------------------------------------------------------------------------------------------------------




--------------------------------------- Iteration      1(   2)  ---------------------------------------


    POTLOK:  cpu time    0.2632: real time    0.2634
    SETDIJ:  cpu time    1.3781: real time    1.3781
     EDDAV:  cpu time  148.7864: real time  149.7057
       DOS:  cpu time    0.0029: real time    0.0029
    CHARGE:  cpu time    5.3950: real time    5.3950
    MIXING:  cpu time    0.0155: real time    0.0155
    --------------------------------------------
      LOOP:  cpu time  155.8411: real time  156.7607

 eigenvalue-minimisations  : 27288
 total energy-change (2. order) :-0.1269717E+03  (-0.5050083E+03)
 number of electron    1923.0000030 magnetization       1.0000000
 augmentation part      512.0707169 magnetization       0.3854121

 Broyden mixing:
  rms(total) = 0.14150E+02    rms(broyden)= 0.14146E+02
  rms(prec ) = 0.20786E+02
  weight for this iteration     100.00

 eigenvalues of (default mixing * dielectric matrix)
  average eigenvalue GAMMA=   0.3374
  0.3374

 Free energy of the ion-electron system (eV)
  ---------------------------------------------------
  alpha Z        PSCENC =      6118.73324990
  Ewald energy   TEWEN  =   -103238.00792310
  -Hartree energ DENC   =    -65522.67635615
  -exchange      EXHF   =         0.00000000
  -V(xc)+E(xc)   XCENC  =      8959.83707560
  PAW double counting   =    200600.00575928  -201563.62056408
  entropy T*S    EENTRO =        -0.00556443
  eigenvalues    EBANDS =    -25919.37728716
  atomic energy  EATOM  =    178577.25249613
  Solvation  Ediel_sol  =         0.00000000
  ---------------------------------------------------
  free energy    TOTEN  =     -1987.85911400 eV

  energy without entropy =    -1987.85354958  energy(sigma->0) =    -1987.85633179


--------------------------------------------------------------------------------------------------------




--------------------------------------- Iteration      1(   3)  ---------------------------------------


    POTLOK:  cpu time    0.2831: real time    0.2833
    SETDIJ:  cpu time    1.4733: real time    1.4733
     EDDAV:  cpu time  153.1328: real time  154.1685
       DOS:  cpu time    0.0016: real time    0.0016
    CHARGE:  cpu time    5.3316: real time    5.3322
    MIXING:  cpu time    0.0316: real time    0.0316
    --------------------------------------------
      LOOP:  cpu time  160.2540: real time  161.2905

 eigenvalue-minimisations  : 28248
 total energy-change (2. order) : 0.1034196E+03  (-0.1600750E+03)
 number of electron    1923.0000029 magnetization       1.0000000
 augmentation part      491.2710148 magnetization       0.5882888

 Broyden mixing:
  rms(total) = 0.64187E+01    rms(broyden)= 0.64167E+01
  rms(prec ) = 0.73851E+01
  weight for this iteration     100.00

 eigenvalues of (default mixing * dielectric matrix)
  average eigenvalue GAMMA=   0.4360
  0.4360  0.4360

 Free energy of the ion-electron system (eV)
  ---------------------------------------------------
  alpha Z        PSCENC =      6118.73324990
  Ewald energy   TEWEN  =   -103238.00792310
  -Hartree energ DENC   =    -65621.46590075
  -exchange      EXHF   =         0.00000000
  -V(xc)+E(xc)   XCENC  =      8962.01325182
  PAW double counting   =    201146.89044645  -202100.71648118
  entropy T*S    EENTRO =        -0.00000000
  eigenvalues    EBANDS =    -25729.13869366
  atomic energy  EATOM  =    178577.25249613
  Solvation  Ediel_sol  =         0.00000000
  ---------------------------------------------------
  free energy    TOTEN  =     -1884.43955439 eV

  energy without entropy =    -1884.43955439  energy(sigma->0) =    -1884.43955439


--------------------------------------------------------------------------------------------------------




--------------------------------------- Iteration      1(   4)  ---------------------------------------


    POTLOK:  cpu time    0.3497: real time    0.3499
    SETDIJ:  cpu time    1.4041: real time    1.4040
     EDDAV:  cpu time  139.7761: real time  140.7243
       DOS:  cpu time    0.0017: real time    0.0017
    CHARGE:  cpu time    5.2881: real time    5.2890
    MIXING:  cpu time    0.0146: real time    0.0146
    --------------------------------------------
      LOOP:  cpu time  146.8344: real time  147.7836

 eigenvalue-minimisations  : 25296
 total energy-change (2. order) : 0.5987535E+02  (-0.4167032E+02)
 number of electron    1923.0000029 magnetization       1.0000000
 augmentation part      493.3206426 magnetization       0.5721120

 Broyden mixing:
  rms(total) = 0.47214E+01    rms(broyden)= 0.47207E+01
  rms(prec ) = 0.54947E+01
  weight for this iteration     100.00

 eigenvalues of (default mixing * dielectric matrix)
  average eigenvalue GAMMA=   0.5689
  0.6570  0.6570  0.3929

 Free energy of the ion-electron system (eV)
  ---------------------------------------------------
  alpha Z        PSCENC =      6118.73324990
  Ewald energy   TEWEN  =   -103238.00792310
  -Hartree energ DENC   =    -65550.42247791
  -exchange      EXHF   =         0.00000000
  -V(xc)+E(xc)   XCENC  =      8968.07040559
  PAW double counting   =    201251.78107982  -202225.15347373
  entropy T*S    EENTRO =        -0.00000000
  eigenvalues    EBANDS =    -25726.81756067
  atomic energy  EATOM  =    178577.25249613
  Solvation  Ediel_sol  =         0.00000000
  ---------------------------------------------------
  free energy    TOTEN  =     -1824.56420395 eV

  energy without entropy =    -1824.56420395  energy(sigma->0) =    -1824.56420395


--------------------------------------------------------------------------------------------------------




--------------------------------------- Iteration      1(   5)  ---------------------------------------


    POTLOK:  cpu time    0.2734: real time    0.2737
    SETDIJ:  cpu time    1.4021: real time    1.4020
     EDDAV:  cpu time  147.5511: real time  148.2816
       DOS:  cpu time    0.0018: real time    0.0018
    CHARGE:  cpu time    5.3122: real time    5.3120
    MIXING:  cpu time    0.0076: real time    0.0076
    --------------------------------------------
      LOOP:  cpu time  154.5481: real time  155.2787

 eigenvalue-minimisations  : 26796
 total energy-change (2. order) : 0.4619846E+02  (-0.1451579E+02)
 number of electron    1923.0000029 magnetization       1.0000000
 augmentation part      493.6316107 magnetization       0.5830316

 Broyden mixing:
  rms(total) = 0.26082E+01    rms(broyden)= 0.26077E+01
  rms(prec ) = 0.30528E+01
  weight for this iteration     100.00

 eigenvalues of (default mixing * dielectric matrix)
  average eigenvalue GAMMA=   0.6659
  0.8699  0.8699  0.4620  0.4620

 Free energy of the ion-electron system (eV)
  ---------------------------------------------------
  alpha Z        PSCENC =      6118.73324990
  Ewald energy   TEWEN  =   -103238.00792310
  -Hartree energ DENC   =    -65574.76991258
  -exchange      EXHF   =         0.00000000
  -V(xc)+E(xc)   XCENC  =      8975.93419035
  PAW double counting   =    200693.28792844  -201685.72546351
  entropy T*S    EENTRO =        -0.00000000
  eigenvalues    EBANDS =    -25645.07031384
  atomic energy  EATOM  =    178577.25249613
  Solvation  Ediel_sol  =         0.00000000
  ---------------------------------------------------
  free energy    TOTEN  =     -1778.36574821 eV

  energy without entropy =    -1778.36574821  energy(sigma->0) =    -1778.36574821


--------------------------------------------------------------------------------------------------------




--------------------------------------- Iteration      1(   6)  ---------------------------------------


    POTLOK:  cpu time    0.2614: real time    0.2636
    SETDIJ:  cpu time    1.3691: real time    1.3690
     EDDAV:  cpu time  149.7658: real time  150.4329
       DOS:  cpu time    0.0035: real time    0.0035
    CHARGE:  cpu time    5.2961: real time    5.3050
    MIXING:  cpu time    0.0081: real time    0.0081
    --------------------------------------------
      LOOP:  cpu time  156.7041: real time  157.3822

 eigenvalue-minimisations  : 27264
 total energy-change (2. order) : 0.1593981E+02  (-0.6024363E+01)
 number of electron    1923.0000029 magnetization       1.0000000
 augmentation part      494.9887021 magnetization       0.5801511

 Broyden mixing:
  rms(total) = 0.16817E+01    rms(broyden)= 0.16815E+01
  rms(prec ) = 0.18435E+01
  weight for this iteration     100.00

 eigenvalues of (default mixing * dielectric matrix)
  average eigenvalue GAMMA=   0.6930
  0.9571  0.9571  0.4040  0.5735  0.5735

 Free energy of the ion-electron system (eV)
  ---------------------------------------------------
  alpha Z        PSCENC =      6118.73324990
  Ewald energy   TEWEN  =   -103238.00792310
  -Hartree energ DENC   =    -65495.84297580
  -exchange      EXHF   =         0.00000000
  -V(xc)+E(xc)   XCENC  =      8975.15905959
  PAW double counting   =    200119.58543390  -201121.29932163
  entropy T*S    EENTRO =        -0.00000000
  eigenvalues    EBANDS =    -25698.00595835
  atomic energy  EATOM  =    178577.25249613
  Solvation  Ediel_sol  =         0.00000000
  ---------------------------------------------------
  free energy    TOTEN  =     -1762.42593935 eV

  energy without entropy =    -1762.42593935  energy(sigma->0) =    -1762.42593935


--------------------------------------------------------------------------------------------------------




--------------------------------------- Iteration      1(   7)  ---------------------------------------


    POTLOK:  cpu time    0.2627: real time    0.2648
    SETDIJ:  cpu time    1.3720: real time    1.3719
     EDDAV:  cpu time  144.8134: real time  145.3175
       DOS:  cpu time    0.0018: real time    0.0018
    CHARGE:  cpu time    5.2509: real time    5.2864
    MIXING:  cpu time    0.0199: real time    0.0199
    --------------------------------------------
      LOOP:  cpu time  151.7206: real time  152.2623

 eigenvalue-minimisations  : 26328
 total energy-change (2. order) : 0.1784013E+01  (-0.1020885E+01)
 number of electron    1923.0000029 magnetization       1.0000000
 augmentation part      495.8163166 magnetization       0.5720480

 Broyden mixing:
  rms(total) = 0.12437E+01    rms(broyden)= 0.12432E+01
  rms(prec ) = 0.13704E+01
  weight for this iteration     100.00

 eigenvalues of (default mixing * dielectric matrix)
  average eigenvalue GAMMA=   0.8847
  1.4543  1.4543  0.7028  0.7028  0.4224  0.5713

 Free energy of the ion-electron system (eV)
  ---------------------------------------------------
  alpha Z        PSCENC =      6118.73324990
  Ewald energy   TEWEN  =   -103238.00792310
  -Hartree energ DENC   =    -65454.76383125
  -exchange      EXHF   =         0.00000000
  -V(xc)+E(xc)   XCENC  =      8973.57694827
  PAW double counting   =    199813.38573558  -200816.53010196
  entropy T*S    EENTRO =        -0.00000000
  eigenvalues    EBANDS =    -25734.28850040
  atomic energy  EATOM  =    178577.25249613
  Solvation  Ediel_sol  =         0.00000000
  ---------------------------------------------------
  free energy    TOTEN  =     -1760.64192682 eV

  energy without entropy =    -1760.64192682  energy(sigma->0) =    -1760.64192682


--------------------------------------------------------------------------------------------------------




--------------------------------------- Iteration      1(   8)  ---------------------------------------


    POTLOK:  cpu time    0.2690: real time    0.2692
    SETDIJ:  cpu time    1.3934: real time    1.4135
     EDDAV:  cpu time  147.7131: real time  148.3892
       DOS:  cpu time    0.0019: real time    0.0019
    CHARGE:  cpu time    5.3131: real time    5.3131
    MIXING:  cpu time    0.0089: real time    0.0089
    --------------------------------------------
      LOOP:  cpu time  154.6992: real time  155.3957

 eigenvalue-minimisations  : 26832
 total energy-change (2. order) : 0.1177842E+00  (-0.1062952E+01)
[...]
   81        1.567   3.473   0.000   5.041
   82        1.574   3.462   0.000   5.037
   83        1.574   3.461   0.000   5.035
   84        1.577   3.474   0.000   5.051
   85        1.575   3.463   0.000   5.038
   86        1.575   3.466   0.000   5.041
   87        1.576   3.463   0.000   5.039
   88        1.575   3.466   0.000   5.041
   89        1.575   3.463   0.000   5.038
   90        1.575   3.459   0.000   5.034
   91        1.574   3.461   0.000   5.035
   92        1.574   3.461   0.000   5.035
   93        1.578   3.471   0.000   5.049
   94        1.576   3.474   0.000   5.050
   95        1.576   3.473   0.000   5.049
   96        1.575   3.463   0.000   5.038
   97        1.575   3.466   0.000   5.041
   98        1.576   3.475   0.000   5.051
   99        1.575   3.467   0.000   5.042
  100        1.576   3.458   0.000   5.034
  101        1.575   3.461   0.000   5.036
  102        1.575   3.460   0.000   5.034
  103        1.570   3.479   0.000   5.049
  104        1.574   3.460   0.000   5.034
  105        1.576   3.472   0.000   5.048
  106        1.575   3.463   0.000   5.038
  107        1.575   3.462   0.000   5.037
  108        1.576   3.474   0.000   5.050
  109        1.575   3.463   0.000   5.038
  110        1.573   3.460   0.000   5.034
  111        1.576   3.472   0.000   5.048
  112        1.577   3.462   0.000   5.038
  113        1.575   3.470   0.000   5.044
  114        1.577   3.474   0.000   5.051
  115        1.574   3.465   0.000   5.039
  116        1.575   3.461   0.000   5.036
  117        1.575   3.462   0.000   5.037
  118        1.575   3.464   0.000   5.039
  119        1.576   3.475   0.000   5.052
  120        1.575   3.461   0.000   5.036
  121        1.575   3.465   0.000   5.040
  122        1.577   3.469   0.000   5.045
  123        1.577   3.474   0.000   5.051
  124        1.576   3.471   0.000   5.047
  125        1.576   3.474   0.000   5.049
  126        1.576   3.461   0.000   5.036
  127        1.575   3.459   0.000   5.033
  128        1.574   3.461   0.000   5.035
  129        1.576   3.470   0.000   5.047
  130        1.737   4.371   0.000   6.108
  131        1.737   4.372   0.000   6.108
  132        1.737   4.380   0.000   6.117
  133        1.738   4.388   0.000   6.126
  134        1.738   4.385   0.000   6.123
  135        1.737   4.368   0.000   6.105
  136        1.736   4.366   0.000   6.103
  137        1.738   4.380   0.000   6.119
  138        1.738   4.381   0.000   6.119
  139        1.739   4.387   0.000   6.126
  140        1.739   4.388   0.000   6.127
  141        1.738   4.382   0.000   6.120
  142        1.738   4.380   0.000   6.118
  143        1.738   4.386   0.000   6.125
  144        1.739   4.385   0.000   6.124
  145        1.738   4.382   0.000   6.120
  146        1.737   4.382   0.000   6.119
  147        1.736   4.369   0.000   6.105
  148        1.736   4.369   0.000   6.105
  149        1.739   4.385   0.000   6.125
  150        1.738   4.388   0.000   6.126
  151        1.738   4.376   0.000   6.114
  152        1.738   4.379   0.000   6.117
  153        1.737   4.381   0.000   6.119
  154        1.737   4.375   0.000   6.112
  155        1.737   4.376   0.000   6.113
  156        1.737   4.369   0.000   6.105
  157        1.737   4.369   0.000   6.106
  158        1.738   4.376   0.000   6.114
  159        1.738   4.375   0.000   6.113
  160        1.737   4.368   0.000   6.105
  161        1.736   4.369   0.000   6.106
  162        1.736   4.369   0.000   6.106
  163        1.736   4.367   0.000   6.104
  164        1.738   4.380   0.000   6.118
  165        1.737   4.370   0.000   6.107
  166        1.736   4.369   0.000   6.105
  167        1.737   4.370   0.000   6.107
  168        1.737   4.370   0.000   6.107
  169        1.739   4.380   0.000   6.118
  170        1.737   4.383   0.000   6.121
  171        1.737   4.371   0.000   6.108
  172        1.738   4.388   0.000   6.126
  173        1.737   4.370   0.000   6.107
  174        1.737   4.370   0.000   6.107
  175        1.739   4.381   0.000   6.120
  176        1.737   4.366   0.000   6.103
  177        1.738   4.377   0.000   6.115
  178        1.737   4.369   0.000   6.105
  179        1.738   4.376   0.000   6.114
  180        1.737   4.380   0.000   6.117
  181        1.736   4.369   0.000   6.105
  182        1.738   4.378   0.000   6.115
  183        1.737   4.369   0.000   6.106
  184        1.738   4.381   0.000   6.118
  185        1.737   4.383   0.000   6.120
  186        1.737   4.381   0.000   6.118
  187        1.737   4.371   0.000   6.107
  188        1.738   4.379   0.000   6.117
  189        1.738   4.381   0.000   6.120
  190        1.738   4.380   0.000   6.118
  191        1.739   4.385   0.000   6.124
  192        1.737   4.370   0.000   6.107
  193        1.739   4.386   0.000   6.125
  194        1.737   4.368   0.000   6.105
  195        1.737   4.370   0.000   6.107
  196        1.738   4.380   0.000   6.118
  197        1.737   4.370   0.000   6.107
  198        1.738   4.375   0.000   6.113
  199        1.738   4.380   0.000   6.119
  200        1.738   4.382   0.000   6.120
  201        1.738   4.379   0.000   6.117
  202        1.738   4.379   0.000   6.117
  203        1.738   4.382   0.000   6.120
  204        1.738   4.377   0.000   6.115
  205        1.737   4.378   0.000   6.116
  206        1.737   4.368   0.000   6.105
  207        1.737   4.369   0.000   6.106
  208        1.738   4.379   0.000   6.117
  209        1.738   4.379   0.000   6.116
  210        1.737   4.376   0.000   6.112
  211        1.737   4.371   0.000   6.108
  212        1.737   4.369   0.000   6.106
  213        1.739   4.375   0.000   6.113
  214        1.736   4.369   0.000   6.105
  215        1.738   4.380   0.000   6.118
  216        1.736   4.367   0.000   6.103
  217        1.737   4.367   0.000   6.104
  218        1.737   4.379   0.000   6.116
  219        1.738   4.378   0.000   6.117
  220        1.738   4.380   0.000   6.118
  221        1.738   4.382   0.000   6.119
  222        1.738   4.380   0.000   6.117
  223        1.737   4.380   0.000   6.118
  224        1.738   4.380   0.000   6.118
  225        1.738   4.379   0.000   6.117
  226        1.738   4.378   0.000   6.116
  227        1.737   4.380   0.000   6.117
  228        1.738   4.377   0.000   6.115
  229        1.738   4.378   0.000   6.116
  230        1.736   4.370   0.000   6.106
  231        1.738   4.377   0.000   6.115
  232        1.736   4.368   0.000   6.104
  233        1.738   4.380   0.000   6.118
  234        1.737   4.369   0.000   6.106
  235        1.737   4.369   0.000   6.106
  236        1.739   4.385   0.000   6.124
  237        1.739   4.389   0.000   6.127
  238        1.737   4.379   0.000   6.117
  239        1.738   4.377   0.000   6.116
  240        1.737   4.379   0.000   6.117
  241        1.738   4.377   0.000   6.115
  242        1.738   4.386   0.000   6.125
  243        1.738   4.388   0.000   6.126
  244        1.738   4.383   0.000   6.121
  245        1.738   4.379   0.000   6.117
  246        1.738   4.379   0.000   6.117
  247        1.738   4.385   0.000   6.123
  248        1.738   4.377   0.000   6.115
  249        1.738   4.387   0.000   6.125
  250        1.738   4.377   0.000   6.115
  251        1.738   4.379   0.000   6.116
  252        1.737   4.381   0.000   6.118
  253        1.738   4.377   0.000   6.115
  254        1.739   4.387   0.000   6.126
  255        1.738   4.381   0.000   6.119
  256        1.739   4.387   0.000   6.126
  257        1.739   4.378   0.000   6.117
--------------------------------------------------
tot        345.5571195.535 112.5971653.689
 


 magnetization (x)
 
# of ion       s       p       d       tot
------------------------------------------
    1       -0.000   0.000   0.000   0.000
    2       -0.000  -0.000   0.000   0.000
    3       -0.000  -0.000   0.000   0.000
    4        0.000  -0.000   0.000   0.000
    5       -0.000  -0.000  -0.000  -0.000
    6       -0.000  -0.000   0.000   0.000
    7        0.000  -0.000   0.000   0.000
    8       -0.000  -0.000   0.000   0.000
    9       -0.000  -0.000   0.000   0.000
   10       -0.000  -0.000   0.000   0.000
   11       -0.000  -0.000   0.000   0.000
   12       -0.000  -0.000  -0.000  -0.000
   13       -0.000  -0.000  -0.000  -0.000
   14       -0.000  -0.000  -0.000  -0.000
   15       -0.000  -0.000  -0.000  -0.000
   16        0.000  -0.000  -0.000  -0.000
   17       -0.000   0.000   0.000   0.000
   18       -0.000  -0.000  -0.000  -0.000
   19       -0.000  -0.000   0.000   0.000
   20       -0.000  -0.000  -0.000  -0.000
   21       -0.000  -0.000   0.000   0.000
   22        0.000  -0.000   0.000   0.000
   23       -0.000  -0.000  -0.000  -0.000
   24       -0.000  -0.000   0.000   0.000
   25       -0.000  -0.000  -0.000  -0.000
   26       -0.000  -0.000   0.000   0.000
   27       -0.000  -0.000   0.000   0.000
   28        0.000   0.000   0.000   0.000
   29       -0.000  -0.000   0.000   0.000
   30       -0.000  -0.000   0.000   0.000
   31       -0.000  -0.000  -0.002  -0.003
   32       -0.000  -0.000  -0.000  -0.000
   33       -0.000  -0.000   0.000   0.000
   34       -0.000  -0.000   0.000   0.000
   35        0.000  -0.000   0.000   0.000
   36        0.000   0.000   0.000   0.000
   37       -0.000  -0.000  -0.000  -0.000
   38        0.000   0.000   0.015   0.015
   39        0.000   0.000   0.005   0.005
   40        0.000   0.000   0.001   0.001
   41        0.000   0.000   0.003   0.003
   42       -0.000   0.000   0.000   0.000
   43       -0.000  -0.000  -0.000  -0.000
   44        0.000   0.000  -0.000  -0.000
   45       -0.000  -0.000  -0.000  -0.000
   46        0.000   0.000   0.001   0.001
   47        0.000   0.001   0.067   0.068
   48        0.000   0.000   0.000   0.000
   49        0.000   0.000   0.008   0.008
   50       -0.000  -0.000   0.000   0.000
   51       -0.000  -0.000   0.000   0.000
   52       -0.000  -0.000   0.000   0.000
   53       -0.000   0.000  -0.000  -0.000
   54        0.000  -0.000   0.012   0.012
   55        0.000   0.000   0.014   0.014
   56        0.000   0.000   0.001   0.001
   57        0.000   0.000   0.000   0.000
   58        0.000   0.000   0.000   0.000
   59       -0.000  -0.000  -0.000  -0.000
   60       -0.000  -0.000  -0.000  -0.000
   61       -0.000  -0.000  -0.000  -0.000
   62        0.000   0.000   0.002   0.002
   63        0.005   0.006   0.873   0.884
   64        0.000   0.000   0.000   0.000
   65        0.000   0.000   0.001   0.001
   66       -0.000  -0.000   0.000  -0.000
   67       -0.000  -0.000   0.000  -0.000
   68        0.000  -0.000   0.000  -0.000
   69        0.000  -0.000   0.000  -0.000
   70       -0.000  -0.000   0.000  -0.000
   71       -0.000  -0.000   0.000  -0.000
   72       -0.000  -0.000   0.000  -0.000
   73        0.000  -0.000   0.000  -0.000
   74       -0.000  -0.000   0.000  -0.000
   75       -0.000  -0.000   0.000  -0.000
   76       -0.000  -0.000   0.000  -0.000
   77        0.000   0.000   0.000   0.000
   78       -0.000  -0.000   0.000  -0.000
   79       -0.000  -0.001   0.000  -0.001
   80       -0.000  -0.001   0.000  -0.001
   81       -0.000  -0.005   0.000  -0.005
   82       -0.000  -0.000   0.000  -0.000
   83        0.000  -0.000   0.000  -0.000
   84       -0.000  -0.001   0.000  -0.001
   85        0.000   0.000   0.000   0.000
   86       -0.000   0.000   0.000   0.000
   87       -0.000  -0.000   0.000  -0.000
   88       -0.000  -0.000   0.000  -0.000
   89       -0.000  -0.000   0.000  -0.000
   90       -0.000  -0.000   0.000  -0.000
   91       -0.000  -0.000   0.000  -0.000
   92       -0.000  -0.000   0.000  -0.000
   93       -0.000  -0.000   0.000  -0.000
   94       -0.000  -0.000   0.000  -0.000
   95       -0.000  -0.000   0.000  -0.000
   96       -0.000  -0.000   0.000  -0.000
   97        0.000   0.000   0.000   0.000
   98       -0.000  -0.000   0.000  -0.000
   99       -0.001  -0.014   0.000  -0.015
  100       -0.000  -0.000   0.000  -0.000
  101       -0.000  -0.000   0.000  -0.000
  102        0.000  -0.000   0.000  -0.000
  103       -0.000  -0.001   0.000  -0.001
  104       -0.000  -0.000   0.000  -0.000
  105       -0.000  -0.000   0.000  -0.000
  106        0.000   0.000   0.000   0.000
  107       -0.000  -0.000   0.000  -0.000
  108       -0.000  -0.000   0.000  -0.000
  109       -0.000  -0.000   0.000  -0.000
  110       -0.000  -0.001   0.000  -0.001
  111       -0.000  -0.000   0.000  -0.000
  112       -0.000  -0.000   0.000  -0.000
  113       -0.000  -0.000   0.000  -0.000
  114       -0.000  -0.000   0.000  -0.000
  115       -0.000  -0.000   0.000  -0.000
  116       -0.000  -0.000   0.000  -0.000
  117       -0.000  -0.000   0.000  -0.000
  118       -0.000  -0.000   0.000  -0.000
  119       -0.000  -0.000   0.000  -0.000
  120       -0.000  -0.000   0.000  -0.000
  121       -0.000  -0.000   0.000  -0.000
  122       -0.000  -0.000   0.000  -0.000
  123       -0.000  -0.000   0.000  -0.000
  124       -0.000  -0.002   0.000  -0.002
  125        0.000   0.000   0.000   0.000
  126       -0.001  -0.033   0.000  -0.034
  127        0.000  -0.000   0.000  -0.000
  128       -0.000  -0.000   0.000  -0.000
  129        0.000   0.000   0.000   0.000
  130       -0.000  -0.000   0.000  -0.000
  131       -0.000  -0.000   0.000  -0.000
  132       -0.000  -0.000   0.000  -0.000
  133        0.000  -0.000   0.000  -0.000
  134       -0.000  -0.000   0.000  -0.000
  135       -0.000  -0.000   0.000  -0.000
  136       -0.000  -0.000   0.000  -0.000
  137        0.000  -0.000   0.000  -0.000
  138       -0.000  -0.000   0.000  -0.000
  139        0.000  -0.000   0.000   0.000
  140       -0.000  -0.000   0.000  -0.000
  141       -0.000  -0.000   0.000  -0.000
  142        0.000  -0.000   0.000  -0.000
  143       -0.000  -0.000   0.000  -0.000
  144        0.000  -0.000   0.000  -0.000
  145        0.000  -0.000   0.000  -0.000
  146        0.000  -0.000   0.000  -0.000
  147        0.000   0.000   0.000   0.000
  148       -0.000  -0.000   0.000  -0.000
  149       -0.000  -0.000   0.000  -0.000
  150       -0.000  -0.000   0.000  -0.000
  151       -0.000  -0.000   0.000  -0.000
  152        0.000  -0.000   0.000  -0.000
  153        0.000  -0.000   0.000  -0.000
  154       -0.000  -0.000   0.000  -0.000
  155       -0.000  -0.001   0.000  -0.001
  156       -0.000   0.000   0.000   0.000
  157       -0.000  -0.000   0.000  -0.000
  158       -0.000  -0.000   0.000  -0.000
  159        0.000  -0.000   0.000  -0.000
  160       -0.000   0.000   0.000   0.000
  161        0.000   0.000   0.000   0.000
  162        0.000   0.000   0.000   0.000
  163        0.000  -0.000   0.000  -0.000
  164       -0.000  -0.001   0.000  -0.001
  165        0.000   0.000   0.000   0.000
  166       -0.000  -0.000   0.000  -0.000
  167        0.000  -0.000   0.000  -0.000
  168       -0.000  -0.000   0.000  -0.000
  169        0.000  -0.000   0.000  -0.000
  170       -0.000   0.000   0.000  -0.000
  171       -0.000  -0.000   0.000  -0.000
  172        0.000  -0.000   0.000  -0.000
  173        0.000  -0.000   0.000  -0.000
  174       -0.000  -0.000   0.000  -0.000
  175       -0.000  -0.000   0.000  -0.000
  176       -0.000  -0.000   0.000  -0.000
  177       -0.000  -0.000   0.000  -0.000
  178       -0.000  -0.000   0.000  -0.000
  179       -0.000  -0.000   0.000  -0.000
  180       -0.000  -0.001   0.000  -0.001
  181       -0.000  -0.000   0.000  -0.000
  182       -0.000  -0.000   0.000  -0.000
  183       -0.000  -0.000   0.000  -0.000
  184       -0.000  -0.000   0.000  -0.000
  185        0.000  -0.000   0.000  -0.000
  186        0.000  -0.000   0.000  -0.000
  187       -0.000  -0.000   0.000  -0.000
  188       -0.000  -0.000   0.000  -0.000
  189       -0.000  -0.000   0.000  -0.000
  190       -0.000  -0.000   0.000  -0.000
  191        0.000  -0.000   0.000  -0.000
  192       -0.000  -0.000   0.000  -0.000
  193       -0.000  -0.000   0.000  -0.000
  194       -0.000  -0.000   0.000  -0.000
  195       -0.000  -0.000   0.000  -0.000
  196       -0.000  -0.000   0.000  -0.000
  197       -0.000  -0.000   0.000  -0.000
  198       -0.000  -0.001   0.000  -0.001
  199       -0.000  -0.000   0.000  -0.000
  200        0.000  -0.000   0.000  -0.000
  201        0.000  -0.000   0.000  -0.000
  202       -0.000  -0.000   0.000  -0.000
  203       -0.000  -0.000   0.000  -0.000
  204       -0.000  -0.000   0.000  -0.000
  205       -0.000  -0.000   0.000  -0.000
  206       -0.000  -0.000   0.000  -0.000
  207       -0.000  -0.000   0.000  -0.000
  208       -0.000  -0.000   0.000  -0.000
  209       -0.000  -0.000   0.000  -0.000
  210       -0.000  -0.005   0.000  -0.005
  211       -0.000  -0.000   0.000  -0.000
  212       -0.000  -0.000   0.000  -0.000
  213       -0.000  -0.000   0.000  -0.000
  214       -0.000  -0.000   0.000  -0.000
  215       -0.000  -0.000   0.000  -0.000
  216       -0.000  -0.000   0.000  -0.000
  217       -0.000  -0.000   0.000  -0.000
  218       -0.000  -0.000   0.000  -0.000
  219        0.000  -0.000   0.000  -0.000
  220        0.000  -0.000   0.000  -0.000
  221       -0.000  -0.000   0.000  -0.000
  222       -0.000  -0.000   0.000  -0.000
  223       -0.000  -0.000   0.000  -0.000
  224       -0.000  -0.000   0.000  -0.000
  225        0.000  -0.000   0.000  -0.000
  226       -0.000  -0.000   0.000  -0.000
  227        0.000   0.000   0.000   0.000
  228       -0.000  -0.000   0.000  -0.000
  229       -0.000  -0.000   0.000  -0.000
  230       -0.000  -0.000   0.000  -0.000
  231       -0.000  -0.000   0.000  -0.000
  232       -0.000  -0.000   0.000  -0.000
  233        0.000  -0.000   0.000  -0.000
  234       -0.000  -0.000   0.000  -0.000
  235        0.000   0.000   0.000   0.000
  236       -0.000  -0.001   0.000  -0.001
  237        0.000   0.000   0.000   0.000
  238       -0.000  -0.000   0.000  -0.000
  239        0.000  -0.000   0.000  -0.000
  240        0.000   0.000   0.000   0.000
  241        0.000  -0.000   0.000   0.000
  242       -0.000  -0.000   0.000  -0.000
  243        0.000  -0.000   0.000  -0.000
  244        0.000  -0.000   0.000  -0.000
  245        0.000  -0.000   0.000  -0.000
  246        0.000   0.000   0.000   0.000
  247        0.000   0.000   0.000   0.000
  248        0.000  -0.000   0.000  -0.000
  249       -0.000  -0.000   0.000  -0.000
  250        0.000   0.000   0.000   0.000
  251       -0.000  -0.000   0.000  -0.000
  252        0.000  -0.000   0.000  -0.000
  253       -0.000  -0.000   0.000  -0.000
  254       -0.000  -0.000   0.000  -0.000
  255       -0.000   0.000   0.000  -0.000
  256       -0.000  -0.000   0.000  -0.000
  257       -0.000  -0.000   0.000  -0.000
--------------------------------------------------
tot          0.001  -0.063   0.998   0.936
 

 total amount of memory used by VASP MPI-rank0   291508. kBytes
=======================================================================

   base      :      30000. kBytes
   nonlr-proj:      49473. kBytes
   fftplans  :      27976. kBytes
   grid      :      34041. kBytes
   one-center:       1026. kBytes
   wavefun   :     148992. kBytes
 
  
  
 General timing and accounting informations for this job:
 ========================================================
  
                  Total CPU time used (sec):     4663.171
                            User time (sec):     4263.762
                          System time (sec):      399.409
                         Elapsed time (sec):     4698.213
  
                   Maximum memory used (kb):      631104.
                   Average memory used (kb):           0.
  
                          Minor page faults:       209567
                          Major page faults:            1
                 Voluntary context switches:        31321
