LTO                                     
           1
     7.815136   -0.022106   -0.001956
    -0.021737    7.817302    0.003079
    -0.000883    0.003109    7.719571
   Ti   O    F 
   8   8  16
Direct configuration=     1
   0.99946890  0.00065156  0.00078228
   0.99923450  0.00094643  0.49976554
   0.99936861  0.50062740  0.98099539
   0.00874677  0.50084058  0.50218054
   0.49944879  0.00039029  0.98064983
   0.49933607  0.99004266  0.50202993
   0.49964258  0.49993390  0.99878125
   0.50894377  0.49136163  0.49672901
   0.23852706  0.50056171  0.49874244
   0.75796866  0.50020593  0.49954837
   0.50020386  0.24283514  0.49903495
   0.49988892  0.76122368  0.49822020
   0.99977903  0.49985644  0.75648903
   0.49985852  0.00036461  0.75572488
   0.50155691  0.49769903  0.24374320
   0.50050106  0.49910175  0.76315384
   0.24998651  0.99452848  0.00375926
   0.23887117  0.00066842  0.49837287
   0.24427261  0.49889252  0.00820676
   0.74884331  0.00573235  0.00473602
   0.75981901  0.00078753  0.49774113
   0.75479740  0.50351212  0.00666587
   0.99467967  0.25025169  0.00497768
   0.99930586  0.24014756  0.49736168
   0.00461081  0.75108701  0.00305601
   0.99927598  0.76153425  0.49891122
   0.49594177  0.24493743  0.00630575
   0.50171649  0.75545617  0.00809662
   0.99960834  0.00015537  0.25680941
   0.99908719  0.00157879  0.74374422
   0.99772143  0.50145150  0.24220787
   0.49898847  0.00263607  0.24247694
