LTO                                     
           1
     7.964462   -0.000000   -0.000002
    -0.000000    7.689401   -0.000003
    -0.000002   -0.000003    7.689427
   Ti   O    F 
   8   8  16
Direct configuration=     1
   0.00000000  0.00000010  0.99999999
   0.00000000  0.00000009  0.49999998
   0.00000000  0.49999992  0.00000001
   0.00000000  0.49999993  0.49999999
   0.50000000  0.99999821  0.99999916
   0.50000000  0.00000032  0.50000086
   0.50000000  0.50000189  0.00000137
   0.50000000  0.49999953  0.49999870
   0.50000000  0.24999978  0.99999962
   0.49999999  0.24999984  0.50000039
   0.50000000  0.75000024  0.99999970
   0.50000001  0.75000009  0.50000031
   0.50000000  0.00000056  0.24999980
   0.50000000  0.00000060  0.75000015
   0.50000000  0.49999940  0.24999993
   0.50000000  0.49999942  0.75000011
   0.23621434  0.99999990  0.00000007
   0.23621537  0.99999978  0.49999996
   0.23621588  0.50000010  0.00000013
   0.23621552  0.50000017  0.49999992
   0.76378566  0.99999990  0.00000007
   0.76378463  0.99999989  0.49999983
   0.76378412  0.50000014  0.00000005
   0.76378448  0.50000017  0.49999993
   0.00000002  0.24999986  1.00000000
   0.00000001  0.25000050  0.50000001
   0.99999998  0.75000016  0.99999998
   1.00000000  0.74999952  0.49999999
   0.99999999  0.00000000  0.24999992
   0.00000001  0.00000004  0.75000004
   0.00000005  0.49999999  0.25000050
   0.99999995  0.50000000  0.74999950
