LTO                                     
           1
     7.928248    0.000000    0.000000
     0.000000    7.798512   -0.000000
     0.000000   -0.000000    7.536980
   Ti   O    F 
   8   8  16
Direct configuration=     1
   1.00000000  0.00014248  0.98888760
   0.00000000  0.00014248  0.51111242
   0.00000000  0.49985756  0.01111239
   1.00000000  0.49985756  0.48888759
   0.50000000  0.98772628  0.00043628
   0.50000000  0.98772628  0.49956381
   0.50000000  0.51227368  0.99956372
   0.50000000  0.51227368  0.50043618
   0.50000000  0.74999998  0.00000007
   0.50000000  0.74999998  0.49999993
   0.00000000  0.99967124  0.75000001
   1.00000000  0.50032880  0.24999999
   0.50000000  0.00592797  0.25000002
   0.50000000  0.00577929  0.75000002
   0.50000000  0.49422055  0.24999998
   0.50000000  0.49407210  0.74999998
   0.23787808  0.00100276  0.00591671
   0.23787808  0.00100277  0.49408332
   0.23787808  0.49899724  0.99408325
   0.23787808  0.49899722  0.50591667
   0.76212192  0.00100275  0.00591673
   0.76212192  0.00100278  0.49408335
   0.76212192  0.49899724  0.99408328
   0.76212192  0.49899723  0.50591670
   0.00000000  0.25000002  0.99999999
   0.00000000  0.25000002  0.50000002
   1.00000000  0.75000002  0.00000000
   1.00000000  0.75000002  0.50000000
   0.50000000  0.24999998  0.99999993
   0.50000000  0.24999998  0.50000007
   1.00000000  0.99960015  0.25000001
   0.00000000  0.50039992  0.74999999
