 vasp.5.4.4.18Apr17-6-g9f103f2a35 (build Jul 16 2019 12:12:28) complex          
  
 executed on             LinuxIFC date 2020.01.06  12:37:57
 running on   96 total cores
 distrk:  each k-point on   96 cores,    1 groups
 distr:  one band on NCORES_PER_BAND=   8 cores,   12 groups


--------------------------------------------------------------------------------------------------------


 INCAR:
 POTCAR:    PAW_PBE Li_sv 10Sep2004               
 POTCAR:    PAW_PBE Ti_pv 07Sep2000               
 POTCAR:    PAW_PBE O 08Apr2002                   
 POTCAR:    PAW_PBE F 08Apr2002                   
 POTCAR:    PAW_PBE Li_sv 10Sep2004               
   VRHFIN =Li: 1s2s2p                                                           
   LEXCH  = PE                                                                  
   EATOM  =   202.7858 eV,   14.9043 Ry                                         
                                                                                
   TITEL  = PAW_PBE Li_sv 10Sep2004                                             
   LULTRA =        F    use ultrasoft PP ?                                      
   IUNSCR =        0    unscreen: 0-lin 1-nonlin 2-no                           
   RPACOR =    0.000    partial core radius                                     
   POMASS =    7.010; ZVAL   =    3.000    mass and valenz                      
   RCORE  =    1.700    outmost cutoff radius                                   
   RWIGS  =    2.050; RWIGS  =    1.085    wigner-seitz radius (au A)           
   ENMAX  =  499.034; ENMIN  =  374.276 eV                                      
   ICORE  =        2    local potential                                         
   LCOR   =        T    correct aug charges                                     
   LPAW   =        T    paw PP                                                  
   EAUG   =  628.945                                                            
   RMAX   =    1.732    core radius for proj-oper                               
   RAUG   =    1.300    factor for augmentation sphere                          
   RDEP   =    1.728    radius for radial grids                                 
   RDEPT  =    1.329    core radius for aug-charge                              
                                                                                
   Atomic configuration                                                         
    4 entries                                                                   
     n  l   j            E        occ.                                          
     1  0  0.50       -51.8549   2.0000                                         
     2  0  0.50        -2.8742   1.0000                                         
     2  1  0.50        -1.3606   0.0000                                         
     3  2  1.50        -1.3606   0.0000                                         
   Description                                                                  
     l       E           TYP  RCUT    TYP  RCUT                                 
     0    -51.8548813     23  1.400                                             
     0     -2.8742052     23  1.700                                             
     1     -1.3605826     23  1.400                                             
     2     -1.3605826     23  1.400                                             
  local pseudopotential read in
  atomic valenz-charges read in
  non local Contribution for L=           0  read in
    real space projection operators read in
  non local Contribution for L=           0  read in
    real space projection operators read in
  non local Contribution for L=           1  read in
    real space projection operators read in
    PAW grid and wavefunctions read in
 
   number of l-projection  operators is LMAX  =           3
   number of lm-projection operators is LMMAX =           5
 
 POTCAR:    PAW_PBE Ti_pv 07Sep2000               
   VRHFIN =Ti: d3 s1                                                            
   LEXCH  = PE                                                                  
   EATOM  =  1042.5995 eV,   76.6289 Ry                                         
                                                                                
   TITEL  = PAW_PBE Ti_pv 07Sep2000                                             
   LULTRA =        F    use ultrasoft PP ?                                      
   IUNSCR =        1    unscreen: 0-lin 1-nonlin 2-no                           
   RPACOR =    2.200    partial core radius                                     
   POMASS =   47.880; ZVAL   =   10.000    mass and valenz                      
   RCORE  =    2.500    outmost cutoff radius                                   
   RWIGS  =    2.500; RWIGS  =    1.323    wigner-seitz radius (au A)           
   ENMAX  =  222.335; ENMIN  =  166.751 eV                                      
   RCLOC  =    1.701    cutoff for local pot                                    
   LCOR   =        T    correct aug charges                                     
   LPAW   =        T    paw PP                                                  
   EAUG   =  482.848                                                            
   DEXC   =    0.000                                                            
   RMAX   =    2.564    core radius for proj-oper                               
   RAUG   =    1.300    factor for augmentation sphere                          
   RDEP   =    2.538    radius for radial grids                                 
   RDEPT  =    1.952    core radius for aug-charge                              
                                                                                
   Atomic configuration                                                         
    8 entries                                                                   
     n  l   j            E        occ.                                          
     1  0  0.50     -4865.3608   2.0000                                         
     2  0  0.50      -533.1368   2.0000                                         
     2  1  1.50      -440.5031   6.0000                                         
     3  0  0.50       -59.3186   2.0000                                         
     3  1  1.50       -35.7012   6.0000                                         
     3  2  2.50        -1.9157   3.0000                                         
     4  0  0.50        -3.7291   1.0000                                         
     4  3  2.50        -1.3606   0.0000                                         
   Description                                                                  
     l       E           TYP  RCUT    TYP  RCUT                                 
     1    -35.7012140     23  2.300                                             
     1     -1.3605826     23  2.300                                             
     2     -1.9156996     23  2.500                                             
     2     -0.4063033     23  2.500                                             
     0     -3.7290856     23  2.500                                             
     0     20.4087390     23  2.500                                             
  local pseudopotential read in
  partial core-charges read in
  partial kinetic energy density read in
  atomic valenz-charges read in
  non local Contribution for L=           1  read in
    real space projection operators read in
  non local Contribution for L=           1  read in
    real space projection operators read in
  non local Contribution for L=           2  read in
    real space projection operators read in
  non local Contribution for L=           2  read in
    real space projection operators read in
  non local Contribution for L=           0  read in
    real space projection operators read in
  non local Contribution for L=           0  read in
    real space projection operators read in
    PAW grid and wavefunctions read in
 
   number of l-projection  operators is LMAX  =           6
   number of lm-projection operators is LMMAX =          18
 
 POTCAR:    PAW_PBE O 08Apr2002                   
   VRHFIN =O: s2p4                                                              
   LEXCH  = PE                                                                  
   EATOM  =   432.3788 eV,   31.7789 Ry                                         
                                                                                
   TITEL  = PAW_PBE O 08Apr2002                                                 
   LULTRA =        F    use ultrasoft PP ?                                      
   IUNSCR =        1    unscreen: 0-lin 1-nonlin 2-no                           
   RPACOR =    1.200    partial core radius                                     
   POMASS =   16.000; ZVAL   =    6.000    mass and valenz                      
   RCORE  =    1.520    outmost cutoff radius                                   
   RWIGS  =    1.550; RWIGS  =    0.820    wigner-seitz radius (au A)           
   ENMAX  =  400.000; ENMIN  =  300.000 eV                                      
   ICORE  =        2    local potential                                         
   LCOR   =        T    correct aug charges                                     
   LPAW   =        T    paw PP                                                  
   EAUG   =  605.392                                                            
   DEXC   =    0.000                                                            
   RMAX   =    1.553    core radius for proj-oper                               
   RAUG   =    1.300    factor for augmentation sphere                          
   RDEP   =    1.550    radius for radial grids                                 
   RDEPT  =    1.329    core radius for aug-charge                              
                                                                                
   Atomic configuration                                                         
    4 entries                                                                   
     n  l   j            E        occ.                                          
     1  0  0.50      -514.6923   2.0000                                         
     2  0  0.50       -23.9615   2.0000                                         
     2  1  0.50        -9.0305   4.0000                                         
     3  2  1.50        -9.5241   0.0000                                         
   Description                                                                  
     l       E           TYP  RCUT    TYP  RCUT                                 
     0    -23.9615318     23  1.200                                             
     0     -9.5240782     23  1.200                                             
     1     -9.0304911     23  1.520                                             
     1      8.1634956     23  1.520                                             
     2     -9.5240782      7  1.500                                             
  local pseudopotential read in
  partial core-charges read in
  partial kinetic energy density read in
  kinetic energy density of atom read in
  atomic valenz-charges read in
  non local Contribution for L=           0  read in
    real space projection operators read in
  non local Contribution for L=           0  read in
    real space projection operators read in
  non local Contribution for L=           1  read in
    real space projection operators read in
  non local Contribution for L=           1  read in
    real space projection operators read in
    PAW grid and wavefunctions read in
 
   number of l-projection  operators is LMAX  =           4
   number of lm-projection operators is LMMAX =           8
 
 POTCAR:    PAW_PBE F 08Apr2002                   
   VRHFIN =F: s2p5                                                              
   LEXCH  = PE                                                                  
   EATOM  =   659.6475 eV,   48.4827 Ry                                         
                                                                                
   TITEL  = PAW_PBE F 08Apr2002                                                 
   LULTRA =        F    use ultrasoft PP ?                                      
   IUNSCR =        1    unscreen: 0-lin 1-nonlin 2-no                           
   RPACOR =    1.200    partial core radius                                     
   POMASS =   18.998; ZVAL   =    7.000    mass and valenz                      
   RCORE  =    1.520    outmost cutoff radius                                   
   RWIGS  =    1.500; RWIGS  =    0.794    wigner-seitz radius (au A)           
   ENMAX  =  400.000; ENMIN  =  300.000 eV                                      
   ICORE  =        2    local potential                                         
   LCOR   =        T    correct aug charges                                     
   LPAW   =        T    paw PP                                                  
   EAUG   =  613.614                                                            
   RMAX   =    1.555    core radius for proj-oper                               
   RAUG   =    1.300    factor for augmentation sphere                          
   RDEP   =    1.539    radius for radial grids                                 
   RDEPT  =    1.299    core radius for aug-charge                              
                                                                                
   Atomic configuration                                                         
    4 entries                                                                   
     n  l   j            E        occ.                                          
     1  0  0.50      -663.3661   2.0000                                         
     2  0  0.50       -29.8995   2.0000                                         
     2  1  0.50       -11.1114   5.0000                                         
     3  2  1.50       -10.8847   0.0000                                         
   Description                                                                  
     l       E           TYP  RCUT    TYP  RCUT                                 
     0    -29.8995018     23  1.200                                             
     0     -9.5240782     23  1.200                                             
     1    -11.1113914     23  1.520                                             
     1      1.3605826     23  1.520                                             
     2    -10.8846608      7  1.500                                             
  local pseudopotential read in
  partial core-charges read in
  partial kinetic energy density read in
  atomic valenz-charges read in
  non local Contribution for L=           0  read in
    real space projection operators read in
  non local Contribution for L=           0  read in
    real space projection operators read in
  non local Contribution for L=           1  read in
    real space projection operators read in
  non local Contribution for L=           1  read in
    real space projection operators read in
    PAW grid and wavefunctions read in
 
   number of l-projection  operators is LMAX  =           4
   number of lm-projection operators is LMMAX =           8
 
 Optimization of the real space projectors (new method)

 maximal supplied QI-value         = 22.11
 optimisation between [QCUT,QGAM] = [ 11.28, 22.77] = [ 35.61,145.23] Ry 
 Optimized for a Real-space Cutoff    1.31 Angstroem

   l    n(q)    QCUT    max X(q) W(low)/X(q) W(high)/X(q)  e(spline) 
   0      9    11.276    10.506    0.19E-04    0.17E-04    0.32E-07
   0      9    11.276     8.367    0.38E-04    0.40E-04    0.65E-07
   1      8    11.276     8.983    0.55E-04    0.98E-04    0.20E-06
 Optimization of the real space projectors (new method)

 maximal supplied QI-value         = 15.12
 optimisation between [QCUT,QGAM] = [ 11.34, 22.83] = [ 36.00,145.93] Ry 
 Optimized for a Real-space Cutoff    1.56 Angstroem

   l    n(q)    QCUT    max X(q) W(low)/X(q) W(high)/X(q)  e(spline) 
   1     10    11.338     4.216    0.27E-04    0.12E-04    0.66E-07
   1     10    11.338     5.422    0.81E-04    0.24E-04    0.19E-06
   2     10    11.338    72.084    0.64E-04    0.21E-03    0.51E-06
   2     10    11.338    65.965    0.63E-04    0.21E-03    0.50E-06
   0     11    11.338    41.531    0.33E-04    0.54E-04    0.13E-06
   0     11    11.338    16.290    0.26E-04    0.41E-04    0.11E-06
 Optimization of the real space projectors (new method)

 maximal supplied QI-value         = 24.76
 optimisation between [QCUT,QGAM] = [ 11.39, 22.77] = [ 36.31,145.25] Ry 
 Optimized for a Real-space Cutoff    1.20 Angstroem

   l    n(q)    QCUT    max X(q) W(low)/X(q) W(high)/X(q)  e(spline) 
   0      8    11.387    20.381    0.89E-04    0.31E-03    0.27E-06
   0      8    11.387    15.268    0.93E-04    0.32E-03    0.29E-06
   1      8    11.387     5.964    0.53E-04    0.28E-03    0.29E-06
   1      8    11.387     5.382    0.37E-04    0.22E-03    0.26E-06
 Optimization of the real space projectors (new method)

 maximal supplied QI-value         = 24.76
 optimisation between [QCUT,QGAM] = [ 11.39, 22.77] = [ 36.31,145.25] Ry 
 Optimized for a Real-space Cutoff    1.20 Angstroem

   l    n(q)    QCUT    max X(q) W(low)/X(q) W(high)/X(q)  e(spline) 
   0      8    11.387    14.049    0.69E-04    0.23E-03    0.18E-06
   0      8    11.387     8.945    0.88E-04    0.30E-03    0.26E-06
   1      8    11.387     7.086    0.62E-04    0.27E-03    0.27E-06
   1      8    11.387     6.747    0.46E-04    0.23E-03    0.25E-06

 ----------------------------------------------------------------------------- 
|                                                                             |
|  ADVICE TO THIS USER RUNNING 'VASP/VAMP'   (HEAR YOUR MASTER'S VOICE ...):  |
|                                                                             |
|      You enforced a specific xc-type in the INCAR file,                     |
|      a different type was found on the POTCAR file                          |
|          I HOPE YOU KNOW, WHAT YOU ARE  DOING                               |
|                                                                             |
 ----------------------------------------------------------------------------- 

  PAW_PBE Li_sv 10Sep2004               :
 energy of atom  1       EATOM= -202.7858
 kinetic energy error for atom=    0.0143 (will be added to EATOM!!)
  PAW_PBE Ti_pv 07Sep2000               :
 energy of atom  2       EATOM=-1042.5995
 kinetic energy error for atom=    0.0024 (will be added to EATOM!!)
  PAW_PBE O 08Apr2002                   :
 energy of atom  3       EATOM= -432.3788
 kinetic energy error for atom=    0.0224 (will be added to EATOM!!)
  PAW_PBE F 08Apr2002                   :
 energy of atom  4       EATOM= -659.6475
 kinetic energy error for atom=    0.0354 (will be added to EATOM!!)
 
 
 POSCAR: config 46                               
  positions in direct lattice
  velocities in cartesian coordinates
 exchange correlation table for  LEXCH =       14
   RHO(1)=    0.500       N(1)  =     2000
   RHO(2)=  100.500       N(2)  =     4000

 VTST: version 3.2, (02/03/18)

 CHAIN: initializing optimizer
 
 OPT: Using VASP QUASI-newton optimizer
 CHAIN: Read ICHAIN            0
 
 POSCAR: config 46                               
  positions in direct lattice
  velocities in cartesian coordinates
 


--------------------------------------------------------------------------------------------------------


 ion  position               nearest neighbor table
   1  0.625  0.813  0.374- 100 1.93  95 1.93 151 2.07  87 2.07  64 2.77  57 2.78  32 2.89
   2  0.995  0.996  0.995- 118 1.86  68 1.88 103 1.89 171 2.02 212 2.03 130 2.05
   3  0.999  0.992  0.494- 119 1.81  67 1.82 172 1.95 193 1.96 131 2.01 213 2.08
   4  0.006  0.496  0.998-  89 1.83 117 1.86 138 1.93 132 1.98 214 2.02 194 2.02
   5  0.994  0.503  0.507-  66 1.82 104 1.84 215 1.93 223 2.00 173 2.01 137 2.03
   6  0.494  0.994  1.000- 101 1.83 121 1.84 140 1.95 133 1.96 216 2.02 174 2.03
   7  0.501  0.009  0.500- 112 1.77 191 1.91 134 1.91 139 1.92 175 1.95 225 2.02
   8  0.504  0.495  0.996- 120 1.88  70 1.88  90 1.89 192 2.03 135 2.03 217 2.04
   9  0.492  0.499  0.495- 102 1.81  69 1.84 224 1.98 218 2.00 136 2.01 176 2.06
  10  0.007  0.003  0.256-  91 1.83  67 1.86 219 1.94 227 1.97 130 2.00 197 2.06
  11  0.001  0.008  0.757-  68 1.79 113 1.84 177 1.95 198 1.99 228 2.04 131 2.06
  12  0.993  0.495  0.252- 107 1.82 122 1.86 137 1.93 132 1.96 220 2.00 178 2.02
  13  0.993  0.499  0.742- 108 1.82  66 1.83 226 1.93 221 1.97 138 2.02 179 2.04
  14  0.507  0.007  0.250- 114 1.83  92 1.85 133 1.92 231 1.96 139 1.99 195 2.00
  15  0.493  0.005  0.752- 105 1.81 115 1.84 140 1.93 134 1.99 232 2.01 180 2.03
  16  0.493  0.497  0.257-  69 1.84 106 1.85 222 1.93 229 1.96 135 2.02 181 2.05
  17  0.501  0.504  0.758-  70 1.80 116 1.88 182 1.95 196 1.97 230 2.03 136 2.06
  18  0.996  0.258  0.001- 117 1.82 110 1.87 141 1.96 146 1.96 183 2.00 212 2.02
  19  0.999  0.248  0.491-  74 1.77 213 1.91 184 1.93 202 1.94 223 1.95 142 2.01
  20  0.998  0.758  0.006- 118 1.81  71 1.86 203 1.94 185 1.97 148 2.05 214 2.05
  21  0.998  0.757  0.506- 119 1.83  72 1.83 186 1.96 204 1.96 147 2.01 215 2.02
  22  0.495  0.258  0.001- 120 1.80 109 1.85 150 1.96 143 1.97 187 2.03 216 2.06
  23  0.509  0.246  0.499-  93 1.80 112 1.90 144 1.92 149 1.93 224 1.97 199 2.00
  24  0.507  0.756  0.998-  94 1.83 121 1.84 145 1.91 152 1.94 217 2.02 200 2.02
  25  0.507  0.753  0.511-  73 1.77  95 1.87 218 1.96 225 1.97 201 1.99 151 2.03
  26  0.999  0.258  0.255- 122 1.79  74 1.88 209 1.94 188 1.95 141 1.99 219 2.02
  27  0.006  0.243  0.747- 113 1.80  96 1.83 142 1.96 146 1.97 226 2.04 210 2.05
  28  0.005  0.749  0.243-  71 1.81  97 1.84 220 1.94 227 1.98 211 2.03 147 2.05
  29  0.993  0.751  0.743- 111 1.83  72 1.84 228 1.93 221 1.97 189 2.02 148 2.02
  30  0.509  0.242  0.252- 114 1.82  98 1.82 143 1.93 149 1.97 229 2.00 205 2.02
  31  0.507  0.243  0.750- 115 1.84  99 1.84 150 1.92 144 1.97 206 2.02 230 2.02
  32  0.501  0.751  0.249- 207 1.97 100 1.97 145 1.98 222 2.01 231 2.02 151 2.04   1 2.89
  33  0.502  0.742  0.745- 116 1.80  73 1.85 190 1.93 208 1.97 152 1.99 232 2.07
  34  0.256  0.999  0.006-  75 1.84 101 1.85 246 1.93 233 1.96 171 2.02 157 2.04
  35  0.251  0.994  0.507- 128 1.83  76 1.84 172 1.95 191 1.99 156 2.02 234 2.02
  36  0.244  0.508  0.998- 123 1.82  89 1.84 159 1.93 153 1.97 192 2.02 245 2.03
  37  0.255  0.495  0.506-  77 1.85 102 1.87 127 1.88 158 2.04 173 2.04 235 2.05
  38  0.757  0.000  0.994- 103 1.79  81 1.87 236 1.95 249 1.96 174 2.04 154 2.05
  39  0.750  0.007  0.494- 124 1.83  80 1.83 193 1.93 155 1.99 175 2.00 250 2.04
  40  0.742  0.502  0.005-  90 1.80  78 1.87 237 1.95 247 1.96 161 2.03 194 2.05
  41  0.756  0.499  0.505-  79 1.84 104 1.85 248 1.95 238 2.00 176 2.01 160 2.01
  42  0.245  0.002  0.244-  75 1.83  91 1.85 239 1.93 252 1.96 156 2.04 195 2.05
  43  0.257  0.998  0.744- 105 1.84  76 1.84 253 1.93 240 1.96 177 2.02 157 2.02
  44  0.256  0.493  0.252- 106 1.83 129 1.83 158 1.93 153 1.97 241 2.04 178 2.04
  45  0.247  0.506  0.741-  77 1.79 125 1.83 179 1.95 196 1.97 251 2.03 159 2.06
  46  0.745  0.999  0.256-  92 1.84  80 1.87 256 1.95 242 1.95 197 1.99 154 1.99
  47  0.748  0.006  0.757-  81 1.82 126 1.83 180 1.94 198 1.96 257 2.04 155 2.07
  48  0.756  0.500  0.243-  78 1.81 107 1.85 254 1.96 243 1.96 181 2.01 160 2.05
  49  0.757  0.499  0.742- 108 1.83  79 1.84 255 1.93 244 1.98 182 2.03 161 2.03
  50  0.257  0.252  0.006- 109 1.83  82 1.86 245 1.93 233 1.97 168 2.02 183 2.05
  51  0.254  0.257  0.505- 127 1.81  83 1.85 199 1.96 184 2.01 167 2.03 234 2.05
  52  0.252  0.743  0.993- 123 1.81  86 1.84 200 1.94 185 1.96 246 2.04 162 2.04
  53  0.252  0.756  0.493-  85 1.82 128 1.86 201 1.97 186 1.97 235 2.00 163 2.04
  54  0.757  0.251  0.007- 110 1.81  84 1.85 236 1.94 247 1.94 170 2.03 187 2.03
  55  0.742  0.243  0.497- 124 1.82  93 1.84 169 1.92 164 1.95 248 2.02 202 2.04
  56  0.742  0.750  0.992-  94 1.81  88 1.83 237 1.94 249 1.95 203 2.02 165 2.06
  57  0.744  0.754  0.495-  87 1.85  95 1.85 250 1.95 238 1.95 166 2.00 204 2.00   1 2.78
  58  0.252  0.258  0.244- 129 1.82  82 1.83 205 1.95 188 1.99 239 2.03 167 2.03
  59  0.244  0.252  0.744-  83 1.83  96 1.84 251 1.93 240 1.97 168 2.03 206 2.04
  60  0.241  0.749  0.256-  97 1.82  85 1.85 241 1.93 252 1.98 162 2.02 207 2.05
  61  0.248  0.742  0.757- 125 1.81  86 1.84 189 1.94 208 1.98 253 2.04 163 2.04
  62  0.742  0.251  0.243-  84 1.79  98 1.82 254 1.93 242 1.95 209 2.03 169 2.06
  63  0.744  0.242  0.751- 126 1.82  99 1.84 170 1.93 164 1.99 210 2.02 255 2.04
  64  0.744  0.752  0.254- 100 1.82  87 1.89 243 1.94 256 1.96 165 1.99 211 2.00   1 2.77
  65  0.758  0.752  0.756- 111 1.82  88 1.83 257 1.93 244 1.97 190 2.03 166 2.05
  66  0.008  0.502  0.625-   5 1.82  13 1.83
  67  0.996  0.005  0.377-   3 1.82  10 1.86
  68  1.000  0.002  0.873-  11 1.79   2 1.88
  69  0.500  0.491  0.376-  16 1.84   9 1.84
  70  0.494  0.496  0.874-  17 1.80   8 1.88
  71  0.000  0.746  0.126-  28 1.81  20 1.86
  72  0.005  0.746  0.624-  21 1.83  29 1.84
  73  0.507  0.753  0.626-  25 1.77  33 1.85
  74  0.995  0.247  0.377-  19 1.77  26 1.88
  75  0.255  0.003  0.126-  42 1.83  34 1.84
  76  0.255  0.004  0.625-  35 1.84  43 1.84
  77  0.239  0.496  0.626-  45 1.79  37 1.85
  78  0.751  0.498  0.126-  48 1.81  40 1.87
  79  0.746  0.499  0.624-  41 1.84  49 1.84
  80  0.749  0.990  0.377-  39 1.83  46 1.87
  81  0.746  0.994  0.874-  47 1.82  38 1.87
  82  0.246  0.250  0.126-  58 1.83  50 1.86
  83  0.253  0.249  0.625-  59 1.83  51 1.85
  84  0.743  0.252  0.126-  62 1.79  54 1.85
  85  0.256  0.747  0.375-  53 1.82  60 1.85
  86  0.255  0.753  0.875-  61 1.84  52 1.84
  87  0.751  0.765  0.376-  57 1.85  64 1.89   1 2.07
  88  0.754  0.757  0.875-  65 1.83  56 1.83
  89  0.124  0.504  0.995-   4 1.83  36 1.84
  90  0.626  0.508  0.998-  40 1.80   8 1.89
  91  0.125  0.999  0.252-  10 1.83  42 1.85
  92  0.626  0.994  0.251-  46 1.84  14 1.85
  93  0.625  0.261  0.495-  23 1.80  55 1.84
  94  0.625  0.742  0.995-  56 1.81  24 1.83
  95  0.625  0.771  0.492-  57 1.85  25 1.87   1 1.93
  96  0.125  0.252  0.749-  27 1.83  59 1.84
  97  0.124  0.756  0.255-  60 1.82  28 1.84
  98  0.626  0.252  0.262-  30 1.82  62 1.82
  99  0.626  0.252  0.747-  63 1.84  31 1.84
 100  0.627  0.766  0.258-  64 1.82   1 1.93  32 1.97
 101  0.376  1.000  0.993-   6 1.83  34 1.85
 102  0.376  0.509  0.504-   9 1.81  37 1.87
 103  0.873  0.001  0.001-  38 1.79   2 1.89
 104  0.875  0.507  0.499-   5 1.84  41 1.85
 105  0.376  0.997  0.757-  15 1.81  43 1.84
 106  0.374  0.501  0.249-  44 1.83  16 1.85
 107  0.875  0.503  0.253-  12 1.82  48 1.85
 108  0.875  0.507  0.747-  13 1.82  49 1.83
 109  0.376  0.249  0.003-  50 1.83  22 1.85
 110  0.874  0.249  0.004-  54 1.81  18 1.87
 111  0.875  0.745  0.744-  65 1.82  29 1.83
 112  0.515  0.123  0.496-   7 1.77  23 1.90
 113  0.996  0.126  0.744-  27 1.80  11 1.84
 114  0.502  0.125  0.263-  30 1.82  14 1.83
 115  0.501  0.124  0.747-  15 1.84  31 1.84
 116  0.501  0.625  0.750-  33 1.80  17 1.88
 117  0.001  0.375  0.004-  18 1.82   4 1.86
 118  0.002  0.875  0.001-  20 1.81   2 1.86
 119  0.990  0.875  0.499-   3 1.81  21 1.83
 120  0.504  0.374  0.006-  22 1.80   8 1.88
 121  0.505  0.876  0.002-   6 1.84  24 1.84
 122  0.001  0.374  0.247-  26 1.79  12 1.86
 123  0.256  0.625  0.002-  52 1.81  36 1.82
 124  0.737  0.125  0.497-  55 1.82  39 1.83
 125  0.248  0.625  0.750-  61 1.81  45 1.83
 126  0.752  0.125  0.749-  63 1.82  47 1.83
 127  0.256  0.373  0.494-  51 1.81  37 1.88
 128  0.258  0.876  0.500-  35 1.83  53 1.86
 129  0.246  0.375  0.256-  58 1.82  44 1.83
 130  0.999  0.002  0.127-  10 2.00   2 2.05
 131  0.003  0.998  0.624-   3 2.01  11 2.06
 132  0.000  0.509  0.125-  12 1.96   4 1.98
 133  0.495  0.010  0.126-  14 1.92   6 1.96
 134  0.498  0.997  0.623-   7 1.91  15 1.99
 135  0.502  0.505  0.127-  16 2.02   8 2.03
 136  0.508  0.500  0.624-   9 2.01  17 2.06
 137  0.003  0.496  0.376-  12 1.93   5 2.03
 138  0.995  0.498  0.873-   4 1.93  13 2.02
 139  0.505  0.988  0.378-   7 1.92  14 1.99
 140  0.515  0.001  0.875-  15 1.93   6 1.95
 141  0.007  0.246  0.127-  18 1.96  26 1.99
 142  0.999  0.258  0.621-  27 1.96  19 2.01
 143  0.508  0.239  0.127-  30 1.93  22 1.97
 144  0.496  0.248  0.623-  23 1.92  31 1.97
 145  0.502  0.742  0.121-  24 1.91  32 1.98
 146  0.996  0.251  0.874-  18 1.96  27 1.97
 147  0.992  0.750  0.376-  21 2.01  28 2.05
 148  0.997  0.751  0.874-  29 2.02  20 2.05
 149  0.491  0.262  0.376-  23 1.93  30 1.97
 150  0.501  0.252  0.874-  31 1.92  22 1.96
 151  0.500  0.764  0.380-  25 2.03  32 2.04   1 2.07
 152  0.491  0.753  0.873-  24 1.94  33 1.99
 153  0.245  0.495  0.125-  44 1.97  36 1.97
 154  0.749  0.009  0.127-  46 1.99  38 2.05
 155  0.746  0.001  0.623-  39 1.99  47 2.07
 156  0.252  0.001  0.376-  35 2.02  42 2.04
 157  0.243  0.995  0.874-  43 2.02  34 2.04
 158  0.247  0.511  0.375-  44 1.93  37 2.04
 159  0.259  0.498  0.873-  36 1.93  45 2.06
 160  0.746  0.501  0.375-  41 2.01  48 2.05
 161  0.752  0.502  0.874-  40 2.03  49 2.03
 162  0.248  0.755  0.125-  60 2.02  52 2.04
 163  0.246  0.751  0.625-  53 2.04  61 2.04
 164  0.752  0.255  0.623-  55 1.95  63 1.99
 165  0.748  0.743  0.126-  64 1.99  56 2.06
 166  0.742  0.745  0.624-  57 2.00  65 2.05
 167  0.253  0.244  0.375-  51 2.03  58 2.03
 168  0.252  0.251  0.875-  50 2.02  59 2.03
 169  0.762  0.250  0.374-  55 1.92  62 2.06
 170  0.752  0.250  0.876-  63 1.93  54 2.03
 171  0.126  0.003  0.003-  34 2.02   2 2.02
 172  0.125  0.997  0.500-  35 1.95   3 1.95
 173  0.123  0.495  0.493-   5 2.01  37 2.04
 174  0.625  0.003  0.008-   6 2.03  38 2.04
 175  0.624  0.978  0.502-   7 1.95  39 2.00
 176  0.626  0.490  0.498-  41 2.01   9 2.06
 177  0.127  1.000  0.747-  11 1.95  43 2.02
 178  0.124  0.504  0.249-  12 2.02  44 2.04
 179  0.123  0.494  0.762-  45 1.95  13 2.04
 180  0.624  0.995  0.742-  47 1.94  15 2.03
 181  0.626  0.492  0.250-  48 2.01  16 2.05
 182  0.627  0.493  0.755-  17 1.95  49 2.03
 183  0.125  0.249  0.995-  18 2.00  50 2.05
 184  0.124  0.252  0.499-  19 1.93  51 2.01
 185  0.125  0.745  0.997-  52 1.96  20 1.97
 186  0.124  0.756  0.494-  21 1.96  53 1.97
 187  0.626  0.248  0.995-  54 2.03  22 2.03
 188  0.124  0.242  0.257-  26 1.95  58 1.99
 189  0.123  0.754  0.754-  61 1.94  29 2.02
 190  0.626  0.754  0.757-  33 1.93  65 2.03
 191  0.378  0.013  0.495-   7 1.91  35 1.99
 192  0.373  0.495  0.007-  36 2.02   8 2.03
 193  0.874  0.014  0.507-  39 1.93   3 1.96
 194  0.875  0.498  0.999-   4 2.02  40 2.05
 195  0.377  0.003  0.257-  14 2.00  42 2.05
 196  0.375  0.498  0.741-  17 1.97  45 1.97
 197  0.874  0.005  0.249-  46 1.99  10 2.06
 198  0.874  0.993  0.743-  47 1.96  11 1.99
 199  0.379  0.237  0.498-  51 1.96  23 2.00
 200  0.376  0.757  0.005-  52 1.94  24 2.02
 201  0.378  0.740  0.505-  53 1.97  25 1.99
 202  0.874  0.243  0.505-  19 1.94  55 2.04
 203  0.872  0.755  0.003-  20 1.94  56 2.02
 204  0.872  0.737  0.506-  21 1.96  57 2.00
 205  0.378  0.252  0.247-  58 1.95  30 2.02
 206  0.376  0.250  0.752-  31 2.02  59 2.04
 207  0.373  0.744  0.245-  32 1.97  60 2.05
 208  0.375  0.755  0.743-  33 1.97  61 1.98
 209  0.874  0.249  0.245-  26 1.94  62 2.03
 210  0.874  0.254  0.747-  63 2.02  27 2.05
 211  0.873  0.742  0.249-  64 2.00  28 2.03
 212  0.003  0.127  0.001-  18 2.02   2 2.03
 213  0.005  0.126  0.509-  19 1.91   3 2.08
 214  0.993  0.626  0.995-   4 2.02  20 2.05
 215  0.008  0.627  0.493-   5 1.93  21 2.02
 216  0.504  0.125  0.996-   6 2.02  22 2.06
 217  0.490  0.627  0.996-  24 2.02   8 2.04
 218  0.514  0.628  0.496-  25 1.96   9 2.00
 219  0.997  0.128  0.247-  10 1.94  26 2.02
 220  0.003  0.624  0.257-  28 1.94  12 2.00
 221  0.010  0.625  0.756-  13 1.97  29 1.97
 222  0.509  0.621  0.256-  16 1.93  32 2.01
 223  0.995  0.374  0.499-  19 1.95   5 2.00
 224  0.489  0.372  0.508-  23 1.97   9 1.98
 225  0.484  0.879  0.503-  25 1.97   7 2.02
 226  0.996  0.375  0.750-  13 1.93  27 2.04
 227  0.990  0.876  0.252-  10 1.97  28 1.98
 228  0.000  0.876  0.747-  29 1.93  11 2.04
 229  0.499  0.371  0.240-  16 1.96  30 2.00
 230  0.497  0.373  0.744-  31 2.02  17 2.03
 231  0.491  0.881  0.244-  14 1.96  32 2.02
 232  0.502  0.875  0.752-  15 2.01  33 2.07
 233  0.247  0.125  0.994-  34 1.96  50 1.97
 234  0.245  0.124  0.497-  35 2.02  51 2.05
 235  0.242  0.627  0.505-  53 2.00  37 2.05
 236  0.745  0.126  0.997-  54 1.94  38 1.95
 237  0.762  0.626  0.998-  56 1.94  40 1.95
 238  0.738  0.627  0.495-  57 1.95  41 2.00
 239  0.255  0.127  0.254-  42 1.93  58 2.03
 240  0.251  0.125  0.757-  43 1.96  59 1.97
 241  0.246  0.624  0.242-  60 1.93  44 2.04
 242  0.752  0.125  0.257-  46 1.95  62 1.95
 243  0.741  0.626  0.255-  64 1.94  48 1.96
 244  0.740  0.625  0.751-  65 1.97  49 1.98
 245  0.248  0.376  0.997-  50 1.93  36 2.03
 246  0.244  0.874  0.002-  34 1.93  52 2.04
 247  0.747  0.375  0.993-  54 1.94  40 1.96
 248  0.760  0.373  0.495-  41 1.95  55 2.02
 249  0.745  0.875  0.013-  56 1.95  38 1.96
 250  0.768  0.877  0.512-  57 1.95  39 2.04
 251  0.254  0.376  0.756-  59 1.93  45 2.03
 252  0.258  0.876  0.252-  42 1.96  60 1.98
 253  0.247  0.874  0.746-  43 1.93  61 2.04
 254  0.755  0.374  0.258-  62 1.93  48 1.96
 255  0.754  0.374  0.753-  49 1.93  63 2.04
 256  0.764  0.876  0.236-  46 1.95  64 1.96
 257  0.750  0.875  0.739-  65 1.93  47 2.04
 

IMPORTANT INFORMATION: All symmetrisations will be switched off!
NOSYMM: (Re-)initialisation of all symmetry stuff for point group C_1.

 
 
 KPOINTS: Title                                   

Automatic generation of k-mesh.
Space group operators:
 irot       det(A)        alpha          n_x          n_y          n_z        tau_x        tau_y        tau_z
    1     1.000000     0.000001     1.000000     0.000000     0.000000     0.000000     0.000000     0.000000
 
 Subroutine IBZKPT returns following result:
 ===========================================
 
 Found      4 irreducible k-points:
 
 Following reciprocal coordinates:
            Coordinates               Weight
  0.250000  0.250000  0.250000      2.000000
 -0.250000  0.250000  0.250000      2.000000
  0.250000 -0.250000  0.250000      2.000000
 -0.250000 -0.250000  0.250000      2.000000
 
 Following cartesian coordinates:
            Coordinates               Weight
  0.016206  0.016206  0.016206      2.000000
 -0.016206  0.016206  0.016206      2.000000
  0.016206 -0.016206  0.016206      2.000000
 -0.016206 -0.016206  0.016206      2.000000
 


--------------------------------------------------------------------------------------------------------




 Dimension of arrays:
   k-points           NKPTS =      4   k-points in BZ     NKDIM =      4   number of bands    NBANDS=   1164
   number of dos      NEDOS =   3001   number of ions     NIONS =    257
   non local maximal  LDIM  =      6   non local SUM 2l+1 LMDIM =     18
   total plane-waves  NPLWV = ******
   max r-space proj   IRMAX =   7595   max aug-charges    IRDMAX= 146383
   dimension x,y,z NGX =   120 NGY =  120 NGZ =  120
   dimension x,y,z NGXF=   240 NGYF=  240 NGZF=  240
   support grid    NGXF=   480 NGYF=  480 NGZF=  480
   ions per type =               1  64  64 128
   NGX,Y,Z   is equivalent  to a cutoff of  12.93, 12.93, 12.93 a.u.
   NGXF,Y,Z  is equivalent  to a cutoff of  25.86, 25.86, 25.86 a.u.

 SYSTEM =  LTO                                     
 POSCAR =  config 46                               

 Startparameter for this run:
   NWRITE =      2    write-flag & timer
   PREC   = accura    normal or accurate (medium, high low for compatibility)
   ISTART =      1    job   : 0-new  1-cont  2-samecut
   ICHARG =      0    charge: 1-file 2-atom 10-const
   ISPIN  =      2    spin polarized calculation?
   LNONCOLLINEAR =      F non collinear calculations
   LSORBIT =      F    spin-orbit coupling
   INIWAV =      1    electr: 0-lowe 1-rand  2-diag
   LASPH  =      T    aspherical Exc in radial PAW
   METAGGA=      F    non-selfconsistent MetaGGA calc.

 Electronic Relaxation 1
   ENCUT  =  500.0 eV  36.75 Ry    6.06 a.u.  28.13 28.13 28.13*2*pi/ulx,y,z
   ENINI  =  500.0     initial cutoff
   ENAUG  =  628.9 eV  augmentation charge cutoff
   NELM   =     60;   NELMIN=  2; NELMDL=  0     # of ELM steps 
   EDIFF  = 0.1E-05   stopping-criterion for ELM
   LREAL  =      T    real-space projection
   NLSPLINE    = F    spline interpolate recip. space projectors
   LCOMPAT=      F    compatible to vasp.4.4
   GGA_COMPAT  = T    GGA compatible to vasp.4.4-vasp.4.6
   LMAXPAW     = -100 max onsite density
   LMAXMIX     =    4 max onsite mixed and CHGCAR
   VOSKOWN=      0    Vosko Wilk Nusair interpolation
   ROPT   =   -0.00010  -0.00010  -0.00010  -0.00010
 Ionic relaxation
   EDIFFG = -.5E-01   stopping-criterion for IOM
   NSW    =    100    number of steps for IOM
   NBLOCK =      1;   KBLOCK =    100    inner block; outer block 
   IBRION =      1    ionic relax: 0-MD 1-quasi-New 2-CG
   NFREE  =      0    steps in history (QN), initial steepest desc. (CG)
   ISIF   =      2    stress and relaxation
   IWAVPR =     11    prediction:  0-non 1-charg 2-wave 3-comb
   ISYM   =      0    0-nonsym 1-usesym 2-fastsym
   LCORR  =      T    Harris-Foulkes like correction to forces

   POTIM  = 0.5000    time-step for ionic-motion
   TEIN   =    0.0    initial temperature
   TEBEG  =    0.0;   TEEND  =   0.0 temperature during run
   SMASS  =  -3.00    Nose mass-parameter (am)
   estimated Nose-frequenzy (Omega)   =  0.10E-29 period in steps =****** mass=  -0.544E-26a.u.
   SCALEE = 1.0000    scale energy and forces
   NPACO  =    256;   APACO  = 16.0  distance and # of slots for P.C.
   PSTRESS=    0.0 pullay stress

  Mass of Ions in am
   POMASS =   7.01 47.88 16.00 19.00
  Ionic Valenz
   ZVAL   =   3.00 10.00  6.00  7.00
  Atomic Wigner-Seitz radii
   RWIGS  =  -1.00 -1.00 -1.00 -1.00
  virtual crystal weights 
   VCA    =   1.00  1.00  1.00  1.00
   NELECT =    1923.0000    total number of electrons
   NUPDOWN=       1.0000    fix difference up-down

 DOS related values:
   EMIN   =  10.00;   EMAX   =-10.00  energy-range for DOS
   EFERMI =   0.00
   ISMEAR =     0;   SIGMA  =   0.01  broadening in eV -4-tet -1-fermi 0-gaus

 Electronic relaxation 2 (details)
   IALGO  =     38    algorithm
   LDIAG  =      T    sub-space diagonalisation (order eigenvalues)
   LSUBROT=      F    optimize rotation matrix (better conditioning)
   TURBO    =      0    0=normal 1=particle mesh
   IRESTART =      0    0=no restart 2=restart with 2 vectors
   NREBOOT  =      0    no. of reboots
   NMIN     =      0    reboot dimension
   EREF     =   0.00    reference energy to select bands
   IMIX   =      4    mixing-type and parameters
     AMIX     =   0.40;   BMIX     =  1.00
     AMIX_MAG =   1.60;   BMIX_MAG =  1.00
     AMIN     =   0.10
     WC   =   100.;   INIMIX=   1;  MIXPRE=   1;  MAXMIX= -45

 Intra band minimization:
   WEIMIN = 0.0010     energy-eigenvalue tresh-hold
   EBREAK =  0.21E-09  absolut break condition
   DEPER  =   0.30     relativ break condition  

   TIME   =   0.40     timestep for ELM

  volume/ion in A,a.u.               =      14.28        96.39
  Fermi-wavevector in a.u.,A,eV,Ry     =   1.319690  2.493853 23.695660  1.741582
  Thomas-Fermi vector in A             =   2.449570
 
 Write flags
   LWAVE        =      T    write WAVECAR
   LDOWNSAMPLE  =      F    k-point downsampling of WAVECAR
   LCHARG       =      T    write CHGCAR
   LVTOT        =      F    write LOCPOT, total local potential
   LVHAR        =      F    write LOCPOT, Hartree potential only
   LELF         =      F    write electronic localiz. function (ELF)
   LORBIT       =     11    0 simple, 1 ext, 2 COOP (PROOUT), +10 PAW based schemes


 Dipole corrections
   LMONO  =      F    monopole corrections only (constant potential shift)
   LDIPOL =      F    correct potential (dipole corrections)
   IDIPOL =      0    1-x, 2-y, 3-z, 4-all directions 
   EPSILON=  1.0000000 bulk dielectric constant

 LDA+U is selected, type is set to LDAUTYPE =  2
   angular momentum for each species LDAUL =    -1    2   -1   -1
   U (eV)           for each species LDAUU =   0.0  4.2  0.0  0.0
   J (eV)           for each species LDAUJ =   0.0  0.0  0.0  0.0
 Exchange correlation treatment:
   GGA     =    PS    GGA type
   LEXCH   =    14    internal setting for exchange type
   VOSKOWN=      0    Vosko Wilk Nusair interpolation
   LHFCALC =     F    Hartree Fock is set to
   LHFONE  =     F    Hartree Fock one center treatment
   AEXX    =    0.0000 exact exchange contribution

 Linear response parameters
   LEPSILON=     F    determine dielectric tensor
   LRPA    =     F    only Hartree local field effects (RPA)
   LNABLA  =     F    use nabla operator in PAW spheres
   LVEL    =     F    velocity operator in full k-point grid
   LINTERFAST=   F  fast interpolation
   KINTER  =     0    interpolate to denser k-point grid
   CSHIFT  =0.1000    complex shift for real part using Kramers Kronig
   OMEGAMAX=  -1.0    maximum frequency
   DEG_THRESHOLD= 0.2000000E-02 threshold for treating states as degnerate
   RTIME   =   -0.100 relaxation time in fs
  (WPLASMAI=    0.000 imaginary part of plasma frequency in eV, 0.658/RTIME)
   DFIELD  = 0.0000000 0.0000000 0.0000000 field for delta impulse in time
 
 Orbital magnetization related:
   ORBITALMAG=     F  switch on orbital magnetization
   LCHIMAG   =     F  perturbation theory with respect to B field
   DQ        =  0.001000  dq finite difference perturbation B field
   LLRAUG    =     F  two centre corrections for induced B field



--------------------------------------------------------------------------------------------------------


 quasi-Newton-method for relaxation of ions
 charge density and potential will be updated during run
 spin polarized calculation
 Variant of blocked Davidson
 Davidson routine will perform the subspace rotation
 perform sub-space diagonalisation
    after iterative eigenvector-optimisation
 modified Broyden-mixing scheme, WC =      100.0
 initial mixing is a Kerker type mixing with AMIX =  0.4000 and BMIX =      1.0000
 Hartree-type preconditioning will be used
 using additional bands          202
 real space projection scheme for non local part
 use partial core corrections
 calculate Harris-corrections to forces 
   (improved forces if not selfconsistent)
 use gradient corrections 
 use of overlap-Matrix (Vanderbilt PP)
 Gauss-broadening in eV      SIGMA  =   0.01


--------------------------------------------------------------------------------------------------------


  energy-cutoff  :      500.00
  volume of cell :     3671.03
      direct lattice vectors                 reciprocal lattice vectors
    15.426331000  0.000000000  0.000000000     0.064824228  0.000000000  0.000000000
     0.000000000 15.426331000  0.000000000     0.000000000  0.064824228  0.000000000
     0.000000000  0.000000000 15.426331000     0.000000000  0.000000000  0.064824228

  length of vectors
    15.426331000 15.426331000 15.426331000     0.064824228  0.064824228  0.064824228


 
 old parameters found on file WAVECAR:
  energy-cutoff  :      500.00
  volume of cell :     3671.03
      direct lattice vectors                 reciprocal lattice vectors
    15.426331000  0.000000000  0.000000000     0.064824228  0.000000000  0.000000000
     0.000000000 15.426331000  0.000000000     0.000000000  0.064824228  0.000000000
     0.000000000  0.000000000 15.426331000     0.000000000  0.000000000  0.064824228

  length of vectors

 
 k-points in units of 2pi/SCALE and weight: Title                                   
   0.01620606  0.01620606  0.01620606       0.250
  -0.01620606  0.01620606  0.01620606       0.250
   0.01620606 -0.01620606  0.01620606       0.250
  -0.01620606 -0.01620606  0.01620606       0.250
 
 k-points in reciprocal lattice and weights: Title                                   
   0.25000000  0.25000000  0.25000000       0.250
  -0.25000000  0.25000000  0.25000000       0.250
   0.25000000 -0.25000000  0.25000000       0.250
  -0.25000000 -0.25000000  0.25000000       0.250
 
 position of ions in fractional coordinates (direct lattice) 
   0.62498784  0.81299179  0.37388182
   0.99522306  0.99556743  0.99470337
   0.99888937  0.99183911  0.49369673
   0.00580606  0.49564683  0.99766382
   0.99413471  0.50336236  0.50718240
   0.49426695  0.99439734  0.99951347
   0.50132271  0.00905539  0.50030988
   0.50422335  0.49537330  0.99555108
   0.49213164  0.49948795  0.49482320
   0.00713581  0.00256654  0.25627692
   0.00106316  0.00771249  0.75688103
   0.99321676  0.49454485  0.25152889
   0.99265127  0.49925282  0.74199556
   0.50658679  0.00719511  0.24990398
   0.49254556  0.00506508  0.75212315
   0.49327417  0.49703871  0.25720830
   0.50082133  0.50358841  0.75795943
   0.99553072  0.25763279  0.00129903
   0.99872869  0.24813407  0.49135386
   0.99803936  0.75822575  0.00632304
   0.99806035  0.75689381  0.50610690
   0.49502660  0.25788190  0.00093641
   0.50867682  0.24628312  0.49911783
   0.50701547  0.75646758  0.99761256
   0.50665816  0.75334197  0.51097977
   0.99915989  0.25835828  0.25516938
   0.00647059  0.24256412  0.74734758
   0.00492883  0.74907732  0.24348925
   0.99297798  0.75089436  0.74287354
   0.50861739  0.24210332  0.25154970
   0.50680424  0.24274460  0.75013151
   0.50058909  0.75099331  0.24865304
   0.50177172  0.74158501  0.74495308
   0.25637823  0.99879421  0.00600570
   0.25060013  0.99388220  0.50656056
   0.24363213  0.50801437  0.99752232
   0.25496499  0.49473155  0.50644547
   0.75707040  0.00007738  0.99443489
   0.75015547  0.00654085  0.49440281
   0.74185058  0.50153601  0.00476429
   0.75563350  0.49879784  0.50529195
   0.24493910  0.00214157  0.24376255
   0.25737843  0.99801835  0.74435415
   0.25576872  0.49301611  0.25175969
   0.24695585  0.50621673  0.74092831
   0.74520834  0.99903414  0.25578139
   0.74803570  0.00606295  0.75682007
   0.75567262  0.50037544  0.24279533
   0.75713718  0.49879180  0.74245833
   0.25732896  0.25154766  0.00588580
   0.25371790  0.25695232  0.50543364
   0.25200001  0.74274450  0.99346493
   0.25237596  0.75558456  0.49280443
   0.75734800  0.25053902  0.00700050
   0.74235488  0.24275474  0.49728359
   0.74203331  0.75033529  0.99240599
   0.74421806  0.75356040  0.49512150
   0.25166519  0.25789545  0.24363154
   0.24402732  0.25164094  0.74365038
   0.24114615  0.74867393  0.25604684
   0.24823203  0.74189043  0.75654261
   0.74238172  0.25075779  0.24250097
   0.74419636  0.24210269  0.75107555
   0.74391974  0.75170455  0.25405753
   0.75771817  0.75151414  0.75623493
   0.00765352  0.50233206  0.62463920
   0.99641346  0.00545821  0.37652128
   0.99950632  0.00221876  0.87301223
   0.49964936  0.49145041  0.37586813
   0.49436948  0.49611880  0.87391994
   0.00045599  0.74644078  0.12610834
   0.00464464  0.74584792  0.62401559
   0.50733047  0.75282271  0.62572771
   0.99475026  0.24723123  0.37660741
   0.25486791  0.00291193  0.12550918
   0.25476550  0.00372949  0.62529382
   0.23921506  0.49563754  0.62556590
   0.75062047  0.49847976  0.12561197
   0.74579521  0.49923468  0.62389564
   0.74938975  0.98961223  0.37671534
   0.74633025  0.99427021  0.87390426
   0.24632374  0.24992954  0.12563007
   0.25277486  0.24939971  0.62506806
   0.74343146  0.25227761  0.12623627
   0.25598805  0.74660741  0.37495674
   0.25466087  0.75262989  0.87489393
   0.75072172  0.76536865  0.37591377
   0.75431412  0.75723793  0.87464369
   0.12437060  0.50441823  0.99475198
   0.62582996  0.50823905  0.99774171
   0.12538700  0.99890084  0.25185423
   0.62584584  0.99366211  0.25106268
   0.62456308  0.26120781  0.49497346
   0.62500972  0.74225219  0.99479113
   0.62537548  0.77111852  0.49199658
   0.12461360  0.25161553  0.74905136
   0.12354031  0.75619482  0.25503842
   0.62586539  0.25183818  0.26172631
   0.62560807  0.25244361  0.74716207
   0.62694121  0.76574169  0.25828674
   0.37578829  0.99975356  0.99266073
   0.37555019  0.50936278  0.50413263
   0.87289568  0.00132581  0.00088270
   0.87510938  0.50722426  0.49927621
   0.37583805  0.99680363  0.75688429
   0.37392125  0.50078487  0.24902768
   0.87546770  0.50340335  0.25266651
   0.87510062  0.50719647  0.74655470
   0.37580141  0.24860227  0.00311399
   0.87436669  0.24883090  0.00433581
   0.87474199  0.74505953  0.74414922
   0.51458143  0.12299949  0.49575703
   0.99622887  0.12607680  0.74425990
   0.50176444  0.12491365  0.26298814
   0.50132651  0.12367064  0.74737936
   0.50125163  0.62516751  0.74994688
   0.00083287  0.37538344  0.00415144
   0.00243350  0.87511805  0.00133184
   0.98960304  0.87484252  0.49917929
   0.50352271  0.37395764  0.00628144
   0.50468415  0.87580314  0.00244853
   0.00143723  0.37419654  0.24740274
   0.25558415  0.62544568  0.00185736
   0.73705169  0.12458064  0.49732366
   0.24814946  0.62469656  0.74986834
   0.75150804  0.12451392  0.74883921
   0.25649155  0.37337217  0.49383940
   0.25792657  0.87586225  0.49990565
   0.24630431  0.37480973  0.25635289
   0.99938658  0.00236518  0.12713537
   0.00260712  0.99826512  0.62363368
   0.00027650  0.50854685  0.12520227
   0.49548318  0.00968449  0.12582354
   0.49770173  0.99656684  0.62335777
   0.50238415  0.50548753  0.12658072
   0.50778379  0.50016391  0.62439089
   0.00324543  0.49636435  0.37623862
   0.99534196  0.49819306  0.87286897
   0.50478199  0.98820910  0.37770047
   0.51495600  0.00058739  0.87487273
   0.00675042  0.24565276  0.12728502
   0.99879719  0.25757263  0.62134693
   0.50823236  0.23884121  0.12672530
   0.49612586  0.24767301  0.62283846
   0.50179568  0.74246852  0.12058592
   0.99607715  0.25089793  0.87415532
   0.99176572  0.75002097  0.37590304
   0.99715859  0.75088716  0.87380065
   0.49098678  0.26181950  0.37618956
   0.50061570  0.25155441  0.87438911
   0.49996025  0.76399177  0.37995568
   0.49090742  0.75328537  0.87292269
   0.24486715  0.49486911  0.12466404
   0.74913133  0.00890757  0.12698266
   0.74580335  0.00069735  0.62292794
   0.25217195  0.00137533  0.37591089
   0.24280494  0.99542574  0.87441892
   0.24692548  0.51130156  0.37537330
   0.25864783  0.49781372  0.87346592
   0.74612982  0.50140936  0.37505776
   0.75240848  0.50198370  0.87378576
   0.24776537  0.75477266  0.12509686
   0.24609926  0.75124640  0.62471000
   0.75190012  0.25506535  0.62273969
   0.74840996  0.74333068  0.12555324
   0.74210846  0.74482857  0.62435420
   0.25303990  0.24360150  0.37471807
   0.25161534  0.25098785  0.87509911
   0.76224902  0.24977079  0.37441063
   0.75181138  0.25018897  0.87582105
   0.12581142  0.00301943  0.00257700
   0.12475029  0.99733365  0.49954768
   0.12331253  0.49547594  0.49254765
   0.62539045  0.00262383  0.00751443
   0.62377076  0.97848053  0.50185607
   0.62551628  0.49046309  0.49788472
   0.12651114  0.99994577  0.74672945
   0.12369280  0.50351450  0.24940981
   0.12311793  0.49376560  0.76226748
   0.62357422  0.99477131  0.74158197
   0.62591118  0.49233535  0.25026478
   0.62650332  0.49326743  0.75494216
   0.12493315  0.24912615  0.99502508
   0.12365267  0.25208564  0.49856470
   0.12472700  0.74483674  0.99717293
   0.12440543  0.75613563  0.49354433
   0.62628589  0.24824429  0.99473958
   0.12448258  0.24212851  0.25655712
   0.12330418  0.75389873  0.75409473
   0.62599553  0.75400621  0.75674110
   0.37787575  0.01314754  0.49540295
   0.37335988  0.49535468  0.00684855
   0.87435457  0.01409121  0.50730778
   0.87466468  0.49781242  0.99903339
   0.37689660  0.00277845  0.25695854
   0.37454947  0.49791225  0.74060570
   0.87403914  0.00520724  0.24850995
   0.87394339  0.99316490  0.74266666
   0.37914702  0.23732302  0.49842302
   0.37606006  0.75748782  0.00499422
   0.37827393  0.73954464  0.50488363
   0.87406623  0.24282674  0.50497212
   0.87209482  0.75527557  0.00347501
   0.87239454  0.73681842  0.50611557
   0.37815124  0.25158007  0.24712013
   0.37624867  0.24952228  0.75221430
   0.37332597  0.74414938  0.24509863
   0.37496388  0.75471397  0.74313364
   0.87416175  0.24854733  0.24501740
   0.87420444  0.25425938  0.74724026
   0.87340212  0.74239691  0.24934777
   0.00291734  0.12696032  0.00120322
   0.00481365  0.12558620  0.50854783
   0.99318674  0.62571009  0.99480419
   0.00751805  0.62675862  0.49258569
   0.50402858  0.12479327  0.99622474
   0.48956401  0.62671105  0.99560677
   0.51352323  0.62758497  0.49615549
   0.99723305  0.12755741  0.24697978
   0.00301650  0.62380788  0.25722935
   0.00977859  0.62476865  0.75565013
   0.50884737  0.62133271  0.25638671
   0.99524669  0.37399527  0.49879586
   0.48890280  0.37188074  0.50778279
   0.48387397  0.87902759  0.50294109
   0.99578099  0.37459182  0.75047796
   0.99007887  0.87613966  0.25160254
   0.00023542  0.87578003  0.74717063
   0.49862622  0.37111778  0.24034933
   0.49667342  0.37296164  0.74409220
   0.49059645  0.88125732  0.24418746
   0.50217696  0.87538451  0.75225023
   0.24656690  0.12494291  0.99362328
   0.24456068  0.12441793  0.49688159
   0.24203323  0.62691943  0.50461757
   0.74471530  0.12593827  0.99698905
   0.76167537  0.62625752  0.99803053
   0.73783192  0.62704780  0.49515654
   0.25452009  0.12658765  0.25364421
   0.25071543  0.12454276  0.75737717
   0.24558785  0.62415685  0.24158993
   0.75182112  0.12534487  0.25658964
   0.74104036  0.62616599  0.25524068
   0.73982629  0.62544868  0.75127680
   0.24786840  0.37621505  0.99740604
   0.24427571  0.87419316  0.00247615
   0.74712688  0.37529846  0.99349929
   0.75978589  0.37253894  0.49542703
   0.74465517  0.87498788  0.01296270
   0.76761288  0.87663675  0.51189592
   0.25375230  0.37597969  0.75593567
   0.25792286  0.87568204  0.25163752
   0.24657736  0.87364059  0.74634942
   0.75536852  0.37437379  0.25790714
   0.75423016  0.37400085  0.75263138
   0.76408302  0.87589165  0.23569185
   0.74981902  0.87529261  0.73940540
 
 position of ions in cartesian coordinates  (Angst):
   9.64126935 12.54148047  5.76762477
  15.35264041 15.35795269 15.34462341
  15.40919802 15.30043836  7.61592912
   0.08956623  7.64601200 15.39029227
  15.33585115  7.76503431  7.82396363
   7.62472563 15.33990249 15.41882563
   7.73357003  0.13969142  7.71794577
   7.77831631  7.64179243 15.35770050
   7.59178561  7.70526648  7.63330652
   0.11007942  0.03959226  3.95341262
   0.01640069  0.11897541 11.67589732
  15.32169045  7.62901259  3.88016788
  15.31296700  7.70163919 11.44626914
   7.81477550  0.11099418  3.85510153
   7.59817082  0.07813554 11.60250066
   7.60941065  7.66748367  3.96778030
   7.72583565  7.76852143 11.69253310
  15.35738646  3.97432877  0.02003924
  15.40671929  3.82779834  7.57978732
  15.39608552 11.69664142  0.09754129
  15.39640925 11.67609446  7.80737260
   7.63644413  3.97817149  0.01444544
   7.84701701  3.79924491  7.69955693
   7.82138853 11.66951924 15.38950153
   7.81587653 11.62130256  7.88254308
  15.41337122  3.98552041  3.93632726
   0.09981753  3.74187445 11.52883109
   0.07603376 11.55551466  3.75614581
  15.31800693 11.58354495 11.45981307
   7.84610024  3.73476598  3.88048899
   7.81812996  3.74465860 11.57177693
   7.72225297 11.58507144  3.83580411
   7.74049658 11.43993580 11.49189278
   3.95497540 15.40773007  0.09264598
   3.86584056 15.33195574  7.81437081
   3.75834994  7.83679787 15.38810943
   3.93317440  7.63189258  7.81259545
  11.67881865  0.00119373 15.34048172
  11.57214656  0.10090136  7.62682141
  11.44403259  7.73686047  0.07349554
  11.65665249  7.69462057  7.79480080
   3.77851160  0.03303660  3.76036174
   3.97040488 15.39576141 11.48265352
   3.94557287  7.60542963  3.88372837
   3.80962273  7.80906687 11.42980530
  11.49583045 15.41143135  3.94576846
  11.53944635  0.09352902 11.67495685
  11.65725604  7.71895715  3.74544119
  11.67984881  7.69452734 11.45340788
   3.96964168  3.88045750  0.09079633
   3.91393632  3.96383154  7.79698668
   3.88743560 11.45782254 15.32551889
   3.89323507 11.65589747  7.60216420
  11.68310094  3.86489786  0.10799196
  11.45181217  3.74481492  7.67126127
  11.44685146 11.57492058 15.30918333
  11.48055421 11.62467223  7.63790816
   3.88227055  3.97838065  3.75834072
   3.76444622  3.88189641 11.47179687
   3.72000028 11.54929182  3.94986337
   3.82930941 11.44464735 11.67067679
  11.45222608  3.86827269  3.74090028
  11.48021939  3.73475617 11.58634008
  11.47595217 11.59604326  3.91917553
  11.68881137 11.59310586 11.66593036
   0.11806579  7.74914068  9.63589108
  15.37100380  0.08420014  5.80834195
  15.41871540  0.03422726 13.46737563
   7.70775646  7.58127662  5.79826623
   7.62630724  7.65329281 13.48137824
   0.00703433 11.51484258  1.94538901
   0.07164976 11.50569695  9.62627107
   7.82624777 11.61329226  9.65268278
  15.34534681  3.81387086  5.80967061
   3.93167670  0.04492041  1.93614614
   3.93009695  0.05753234  9.64598938
   3.69021075  7.64586876  9.65018665
  11.57931986  7.68971370  1.93773184
  11.50488374  7.70135944  9.62442073
  11.56033439 15.26608582  5.81133553
  11.51313753 15.33794139 13.48113632
   3.79987159  3.85549587  1.93801100
   3.89938867  3.84732242  9.64250678
  11.46841982  3.89171792  1.94736249
   3.94895644 11.51741304  5.78420672
   3.92848283 11.61031785 13.49640342
  11.58088180 11.80683014  5.79897024
  11.63629926 11.68140303 13.49254311
   1.91858210  7.78132260 15.34537325
   9.65426005  7.84026384 15.39149391
   1.93426136 15.40937498  3.88518671
   9.65450508 15.32856057  3.87297603
   9.63471685  4.02947815  7.63562447
   9.64160689 11.45022802 15.34597725
   9.64724923 11.89552950  7.58970204
   1.92233067  3.88150444 11.55511420
   1.90577368 11.66531164  3.93430713
   9.65480664  3.88493919  4.03747676
   9.65083710  3.89427864 11.52596945
   9.67140269 11.81258480  3.98441678
   5.79703461 15.42252929 15.31311300
   5.79336147  7.85759886  7.77691683
  13.46557774  0.02045242  0.01361685
  13.49972688  7.82460926  7.70200011
   5.79780224 15.37702266 11.67594755
   5.76823301  7.72527320  3.84158348
  13.50525457  7.76566666  3.89771719
  13.49959181  7.82418068 11.51659995
   5.79723690  3.83502092  0.04803743
  13.48826994  3.83854789  0.06688556
  13.49405945 11.49353499 11.47949214
   7.93810347  1.89743085  7.64771201
  15.36815630  1.94490241 11.48119950
   7.74038432  1.92695935  4.05694204
   7.73362875  1.90778416 11.52932133
   7.73247360  9.64404099 11.56892875
   0.01284817  5.79078917  0.06404149
   0.03754003 13.49986069  0.02054542
  15.26594398 13.49561029  7.70050488
   7.76750804  5.76879429  0.09689961
   7.78542468 13.51042916  0.03777188
   0.02217117  5.77247970  3.81651655
   3.94272565  9.64833202  0.02865221
  11.37000327  1.92182225  7.67187938
   3.82803571  9.63677585 11.56771720
  11.59301171  1.92079299 11.55184153
   3.95672352  5.75976263  7.61813006
   3.97886060 13.51134100  7.71171008
   3.79957188  5.78193896  3.95458456
  15.41686825  0.03648606  1.96123228
   0.04021826 15.39956810  9.62037961
   0.00426540  7.84501203  1.93141173
   7.64348760  0.14939618  1.94099563
   7.67771158 15.37336997  9.61612328
   7.74994420  7.79781797  1.95267602
   7.83324081  7.71569409  9.63206054
   0.05006505  7.65708083  5.80398156
  15.35447459  7.68529106 13.46516571
   7.78693410 15.24444063  5.82653251
   7.94388173  0.00906125 13.49607634
   0.10413425  3.78952082  1.96354088
  15.40777604  3.97340060  9.58510347
   7.84016060  3.68444353  1.95490649
   7.65340175  3.82068576  9.60811227
   7.74086633 11.45356508  1.86019828
  15.36581577  3.87043446 13.48500937
  15.29930626 11.57007172  5.79880469
  15.38249851 11.58343385 13.47953801
   7.57412464  4.03891421  5.80322466
   7.72266347  3.88056157 13.48861584
   7.71255231 11.78558992  5.86132209
   7.57290033 11.62042948 13.46599435
   3.77740170  7.63401466  1.92310871
  11.55634784  0.13741105  1.95887656
  11.50500932  0.01075749  9.60949255
   3.89008798  0.02121623  5.79892579
   3.74558944 15.35576691 13.48907576
   3.80915416  7.88750718  5.79063271
   3.98998700  7.67943925 13.47437436
  11.51004552  7.73490679  5.78576513
  11.60690232  7.74376677 13.47930831
   3.82211064 11.64337284  1.92978563
   3.79640866 11.58897570  9.63698323
  11.59906008  3.93472245  9.60658854
  11.54521984 11.46686507  1.93682590
  11.44801072 11.48997204  9.63149450
   3.90347726  3.75787732  5.78052505
   3.88150157  3.87182163 13.49956856
  11.75870572  3.85304684  5.77578228
  11.59769121  3.85949789 13.51070540
   1.94080862  0.04657867  0.03975363
   1.92443931 15.38519895  7.70618782
   1.90225984  7.64337581  7.59820311
   9.64748013  0.04047609  0.11592005
   9.62249426 15.09436459  7.74179782
   9.64942115  7.56604604  7.68053449
   1.95160277 15.42549443 11.51929563
   1.90812602  7.76738127  3.84747830
   1.89925791  7.61699154 11.75899050
   9.61946226 15.34567143 11.43988889
   9.65551310  7.59492801  3.86066736
   9.66464764  7.60930672 11.64598759
   1.92726020  3.84310251 15.34958626
   1.90750705  3.88875649  7.69102411
   1.92407998 11.49009803 15.38271968
   1.91911927 11.66439846  7.61357825
   9.66129339  3.82949858 15.34518201
   1.92030951  3.73515457  3.95773502
   1.90213103 11.62989139 11.63291485
   9.65681420 11.63154935 11.67373866
   5.82923645  0.20281832  7.64224983
   5.75957315  7.64150531  0.10564807
  13.48808300  0.21737565  7.82589773
  13.49286681  7.67941910 15.41141974
   5.81413166  0.04286130  3.96392749
   5.77792402  7.68095912 11.42482870
  13.48321713  0.08032863  3.83359672
  13.48174001 15.32089047 11.45662168
   5.84884739  3.66102344  7.68883853
   5.80122697 11.68525777  0.07704249
   5.83537884 11.40846044  7.78850200
  13.48363497  3.74592568  7.78986711
  13.45322335 11.65113099  0.05360669
  13.45784688 11.36640487  7.80750627
   5.83348623  3.88095745  3.81215693
   5.80413649  3.84921334 11.60390672
   5.75904999 11.47949467  3.78097261
   5.78431697 11.64246756 11.46382549
  13.48510845  3.83417339  3.77971958
  13.48576701  3.92228929 11.52717563
  13.47339024 11.45246051  3.84652130
   0.04500386  1.95853199  0.01856127
   0.07425703  1.93733435  7.84502712
  15.32122734  9.65241095 15.34617874
   0.11597591  9.66858591  7.59878988
   7.77531169  1.92510232 15.36809266
   7.55217649  9.66785210 15.35855963
   7.92177932  9.68133353  7.65385875
  15.38364716  1.96774280  3.80999176
   0.04653351  9.62306686  3.96810512
   0.15084782  9.63788802 11.65690901
   7.84964790  9.58488407  3.95510619
  15.35300490  5.76937483  7.69459007
   7.54197639  5.73675533  7.83322537
   7.46440000 13.56017054  7.75853567
  15.36124714  5.77857736 11.57712148
  15.27328439 13.51562039  3.88130412
   0.00363169 13.51007265 11.52610142
   7.69197318  5.72498575  3.70770831
   7.66184860  5.75342976 11.47861258
   7.56810318 13.59456708  3.76691658
   7.74674798 13.50397124 11.60446098
   3.80362260  1.92741072 15.32796157
   3.77267406  1.91931222  7.66505985
   3.73368474  9.67106659  7.78439762
  11.48822476  1.94276546 15.37988304
  11.74985636  9.66085575 15.39594928
  11.38203935  9.67304686  7.63844862
   3.92631121  1.95278293  3.91279961
   3.86761924  1.92123782 11.68355092
   3.78851944  9.62845016  3.72684624
  11.59784149  1.93361138  3.95823676
  11.43153383  9.65944375  3.93742727
  11.41280520  9.64837842 11.58944453
   3.82369994  5.80361796 15.38631573
   3.76827803 13.48559306  0.03819787
  11.52542653  5.78947819 15.32604889
  11.72070862  5.74690904  7.64262131
  11.48729718 13.49785260  0.19996686
  11.84145038 13.52328863  7.89667594
   3.91446695  5.79998714 11.66131392
   3.97880342 13.50856102  3.88184363
   3.80378391 13.47706891 11.51343326
  11.65256481  5.77521407  3.97856085
  11.63500410  5.76946087 11.61034078
  11.78699759 13.51179457  3.63586044
  11.56695643 13.50255345 11.40631242
 


--------------------------------------------------------------------------------------------------------


 k-point  1 :   0.2500 0.2500 0.2500  plane waves:   93161
 k-point  2 :  -0.2500 0.2500 0.2500  plane waves:   93161
 k-point  3 :   0.2500-0.2500 0.2500  plane waves:   93161
 k-point  4 :  -0.2500-0.2500 0.2500  plane waves:   93161

 maximum and minimum number of plane-waves per node :     11686    11606

 maximum number of plane-waves:     93161
 maximum index in each direction: 
   IXMAX=   28   IYMAX=   28   IZMAX=   27
   IXMIN=  -28   IYMIN=  -28   IZMIN=  -28


 real space projection operators:
  total allocation   :     105583.43 KBytes
  max/ min on nodes  :      13236.73      13169.83


 parallel 3D FFT for wavefunctions:
    minimum data exchange during FFTs selected (reduces bandwidth)
 parallel 3D FFT for charge:
    minimum data exchange during FFTs selected (reduces bandwidth)


 total amount of memory used by VASP MPI-rank0   291473. kBytes
=======================================================================

   base      :      30000. kBytes
   nonlr-proj:      49438. kBytes
   fftplans  :      27976. kBytes
   grid      :      34041. kBytes
   one-center:       1026. kBytes
   wavefun   :     148992. kBytes
 
     INWAV:  cpu time   51.8679: real time   52.0714
 Broyden mixing: mesh for mixing (old mesh)
   NGX = 57   NGY = 57   NGZ = 57
  (NGX  =240   NGY  =240   NGZ  =240)
  gives a total of 185193 points

 charge density for first step will be calculated from the start-wavefunctions


--------------------------------------------------------------------------------------------------------


 Maximum index for non-local projection operator          968
 Maximum index for augmentation-charges         3294 (set IRDMAX)


--------------------------------------------------------------------------------------------------------


 initial charge from wavefunction
 First call to EWALD:  gamma=   0.115
 Maximum number of real-space cells 3x 3x 3
 Maximum number of reciprocal cells 3x 3x 3

    FEWALD:  cpu time    0.0367: real time    0.0369


--------------------------------------- Iteration      1(   1)  ---------------------------------------


    POTLOK:  cpu time    0.3494: real time    0.3711
    SETDIJ:  cpu time    1.4127: real time    1.4135
     EDDAV:  cpu time  131.7258: real time  132.7486
       DOS:  cpu time    0.0029: real time    0.0030
    CHARGE:  cpu time    5.2203: real time    5.2237
    MIXING:  cpu time    0.0090: real time    0.0090
    --------------------------------------------
      LOOP:  cpu time  138.7201: real time  139.7690

 eigenvalue-minimisations  : 22788
 total energy-change (2. order) :-0.1864562E+04  (-0.3511292E+03)
 number of electron    1923.0000024 magnetization       1.0000000
 augmentation part      506.5131566 magnetization       0.7936009

 Broyden mixing:
  rms(total) = 0.10261E+02    rms(broyden)= 0.10258E+02
  rms(prec ) = 0.15193E+02
  weight for this iteration     100.00

 Free energy of the ion-electron system (eV)
  ---------------------------------------------------
  alpha Z        PSCENC =      6118.73324990
  Ewald energy   TEWEN  =   -103187.89482328
  -Hartree energ DENC   =    -65407.58122991
  -exchange      EXHF   =         0.00000000
  -V(xc)+E(xc)   XCENC  =      8960.49883012
  PAW double counting   =    198591.06596601  -199587.39348114
  entropy T*S    EENTRO =        -0.00378420
  eigenvalues    EBANDS =    -25929.23907860
  atomic energy  EATOM  =    178577.25249613
  Solvation  Ediel_sol  =         0.00000000
  ---------------------------------------------------
  free energy    TOTEN  =     -1864.56185497 eV

  energy without entropy =    -1864.55807077  energy(sigma->0) =    -1864.55996287


--------------------------------------------------------------------------------------------------------




--------------------------------------- Iteration      1(   2)  ---------------------------------------


    POTLOK:  cpu time    0.2614: real time    0.2634
    SETDIJ:  cpu time    1.3879: real time    1.3888
     EDDAV:  cpu time  150.0353: real time  151.2343
       DOS:  cpu time    0.0030: real time    0.0030
    CHARGE:  cpu time    5.1993: real time    5.2026
    MIXING:  cpu time    0.0077: real time    0.0112
    --------------------------------------------
      LOOP:  cpu time  156.8945: real time  158.1032

 eigenvalue-minimisations  : 27156
 total energy-change (2. order) :-0.1360913E+03  (-0.5103321E+03)
 number of electron    1923.0000024 magnetization       1.0000000
 augmentation part      508.5849009 magnetization       0.6671189

 Broyden mixing:
  rms(total) = 0.12554E+02    rms(broyden)= 0.12550E+02
  rms(prec ) = 0.18545E+02
  weight for this iteration     100.00

 eigenvalues of (default mixing * dielectric matrix)
  average eigenvalue GAMMA=   0.4252
  0.4252

 Free energy of the ion-electron system (eV)
  ---------------------------------------------------
  alpha Z        PSCENC =      6118.73324990
  Ewald energy   TEWEN  =   -103187.89482328
  -Hartree energ DENC   =    -65604.50511955
  -exchange      EXHF   =         0.00000000
  -V(xc)+E(xc)   XCENC  =      8962.32802170
  PAW double counting   =    201038.27487522  -202000.47804643
  entropy T*S    EENTRO =        -0.00287365
  eigenvalues    EBANDS =    -25904.36088979
  atomic energy  EATOM  =    178577.25249613
  Solvation  Ediel_sol  =         0.00000000
  ---------------------------------------------------
  free energy    TOTEN  =     -2000.65310975 eV

  energy without entropy =    -2000.65023610  energy(sigma->0) =    -2000.65167293


--------------------------------------------------------------------------------------------------------




--------------------------------------- Iteration      1(   3)  ---------------------------------------


    POTLOK:  cpu time    0.2615: real time    0.2636
    SETDIJ:  cpu time    1.3824: real time    1.3833
     EDDAV:  cpu time  153.9420: real time  154.8887
       DOS:  cpu time    0.0022: real time    0.0022
    CHARGE:  cpu time    5.2066: real time    5.2094
    MIXING:  cpu time    0.0076: real time    0.0089
    --------------------------------------------
      LOOP:  cpu time  160.8023: real time  161.7561

 eigenvalue-minimisations  : 28020
 total energy-change (2. order) : 0.1260578E+03  (-0.1512145E+03)
 number of electron    1923.0000023 magnetization       1.0000000
 augmentation part      492.0304670 magnetization       0.5921088

 Broyden mixing:
  rms(total) = 0.61272E+01    rms(broyden)= 0.61250E+01
  rms(prec ) = 0.70907E+01
  weight for this iteration     100.00

 eigenvalues of (default mixing * dielectric matrix)
  average eigenvalue GAMMA=   0.4608
  0.4608  0.4608

 Free energy of the ion-electron system (eV)
  ---------------------------------------------------
  alpha Z        PSCENC =      6118.73324990
  Ewald energy   TEWEN  =   -103187.89482328
  -Hartree energ DENC   =    -65650.44729106
  -exchange      EXHF   =         0.00000000
  -V(xc)+E(xc)   XCENC  =      8962.59326693
  PAW double counting   =    201140.97250433  -202095.33628561
  entropy T*S    EENTRO =        -0.00301366
  eigenvalues    EBANDS =    -25740.46538658
  atomic energy  EATOM  =    178577.25249613
  Solvation  Ediel_sol  =         0.00000000
  ---------------------------------------------------
  free energy    TOTEN  =     -1874.59528290 eV

  energy without entropy =    -1874.59226924  energy(sigma->0) =    -1874.59377607


--------------------------------------------------------------------------------------------------------




--------------------------------------- Iteration      1(   4)  ---------------------------------------


    POTLOK:  cpu time    0.2616: real time    0.2644
    SETDIJ:  cpu time    1.3846: real time    1.3849
     EDDAV:  cpu time  141.5427: real time  142.5048
       DOS:  cpu time    0.0018: real time    0.0018
    CHARGE:  cpu time    5.2821: real time    5.2851
    MIXING:  cpu time    0.0126: real time    0.0132
    --------------------------------------------
      LOOP:  cpu time  148.4853: real time  149.4543

 eigenvalue-minimisations  : 25320
 total energy-change (2. order) : 0.4925246E+02  (-0.4361833E+02)
 number of electron    1923.0000023 magnetization       1.0000000
 augmentation part      493.5947219 magnetization       0.6143878

 Broyden mixing:
  rms(total) = 0.45871E+01    rms(broyden)= 0.45863E+01
  rms(prec ) = 0.53596E+01
  weight for this iteration     100.00

 eigenvalues of (default mixing * dielectric matrix)
  average eigenvalue GAMMA=   0.5781
  0.6412  0.6412  0.4520

 Free energy of the ion-electron system (eV)
  ---------------------------------------------------
  alpha Z        PSCENC =      6118.73324990
  Ewald energy   TEWEN  =   -103187.89482328
  -Hartree energ DENC   =    -65595.93514443
  -exchange      EXHF   =         0.00000000
  -V(xc)+E(xc)   XCENC  =      8968.65670630
  PAW double counting   =    201262.15668197  -202236.44403741
  entropy T*S    EENTRO =        -0.00000000
  eigenvalues    EBANDS =    -25731.86795504
  atomic energy  EATOM  =    178577.25249613
  Solvation  Ediel_sol  =         0.00000000
  ---------------------------------------------------
  free energy    TOTEN  =     -1825.34282585 eV

  energy without entropy =    -1825.34282585  energy(sigma->0) =    -1825.34282585


--------------------------------------------------------------------------------------------------------




--------------------------------------- Iteration      1(   5)  ---------------------------------------


    POTLOK:  cpu time    0.2680: real time    0.2706
    SETDIJ:  cpu time    1.4070: real time    1.4079
     EDDAV:  cpu time  151.0236: real time  151.9772
       DOS:  cpu time    0.0018: real time    0.0018
    CHARGE:  cpu time    5.2341: real time    5.2373
    MIXING:  cpu time    0.0077: real time    0.0077
    --------------------------------------------
      LOOP:  cpu time  157.9421: real time  158.9025

 eigenvalue-minimisations  : 27096
 total energy-change (2. order) : 0.4340387E+02  (-0.1098864E+02)
 number of electron    1923.0000023 magnetization       1.0000000
 augmentation part      493.7281030 magnetization       0.6263037

 Broyden mixing:
  rms(total) = 0.27438E+01    rms(broyden)= 0.27432E+01
  rms(prec ) = 0.32129E+01
  weight for this iteration     100.00

 eigenvalues of (default mixing * dielectric matrix)
  average eigenvalue GAMMA=   0.6278
  0.7924  0.7924  0.4633  0.4633

 Free energy of the ion-electron system (eV)
  ---------------------------------------------------
  alpha Z        PSCENC =      6118.73324990
  Ewald energy   TEWEN  =   -103187.89482328
  -Hartree energ DENC   =    -65609.34886071
  -exchange      EXHF   =         0.00000000
  -V(xc)+E(xc)   XCENC  =      8974.98328584
  PAW double counting   =    200703.93892674  -201695.49150108
  entropy T*S    EENTRO =        -0.00000000
  eigenvalues    EBANDS =    -25664.11172742
  atomic energy  EATOM  =    178577.25249613
  Solvation  Ediel_sol  =         0.00000000
  ---------------------------------------------------
  free energy    TOTEN  =     -1781.93895388 eV

  energy without entropy =    -1781.93895388  energy(sigma->0) =    -1781.93895388


--------------------------------------------------------------------------------------------------------




--------------------------------------- Iteration      1(   6)  ---------------------------------------


    POTLOK:  cpu time    0.2623: real time    0.2626
    SETDIJ:  cpu time    1.4326: real time    1.4339
     EDDAV:  cpu time  149.9842: real time  151.1983
       DOS:  cpu time    0.0018: real time    0.0018
    CHARGE:  cpu time    5.2360: real time    5.2396
    MIXING:  cpu time    0.0081: real time    0.0084
    --------------------------------------------
      LOOP:  cpu time  156.9251: real time  158.1446

 eigenvalue-minimisations  : 27072
 total energy-change (2. order) : 0.1605650E+02  (-0.4839142E+01)
 number of electron    1923.0000023 magnetization       1.0000000
 augmentation part      494.8061778 magnetization       0.5858353

 Broyden mixing:
  rms(total) = 0.17787E+01    rms(broyden)= 0.17784E+01
  rms(prec ) = 0.20234E+01
  weight for this iteration     100.00

 eigenvalues of (default mixing * dielectric matrix)
  average eigenvalue GAMMA=   0.6974
  0.9604  0.9604  0.4425  0.5617  0.5617

 Free energy of the ion-electron system (eV)
  ---------------------------------------------------
  alpha Z        PSCENC =      6118.73324990
  Ewald energy   TEWEN  =   -103187.89482328
  -Hartree energ DENC   =    -65550.47238911
  -exchange      EXHF   =         0.00000000
  -V(xc)+E(xc)   XCENC  =      8975.33357726
  PAW double counting   =    200229.69684910  -201229.32310595
  entropy T*S    EENTRO =        -0.00000000
  eigenvalues    EBANDS =    -25699.20831008
  atomic energy  EATOM  =    178577.25249613
  Solvation  Ediel_sol  =         0.00000000
  ---------------------------------------------------
  free energy    TOTEN  =     -1765.88245602 eV

  energy without entropy =    -1765.88245602  energy(sigma->0) =    -1765.88245602


--------------------------------------------------------------------------------------------------------




--------------------------------------- Iteration      1(   7)  ---------------------------------------


    POTLOK:  cpu time    0.2630: real time    0.2632
    SETDIJ:  cpu time    1.4132: real time    1.4144
     EDDAV:  cpu time  154.5922: real time  155.5439
       DOS:  cpu time    0.0019: real time    0.0019
    CHARGE:  cpu time    5.2214: real time    5.2249
    MIXING:  cpu time    0.0083: real time    0.0083
    --------------------------------------------
      LOOP:  cpu time  161.5001: real time  162.4565

 eigenvalue-minimisations  : 27996
 total energy-change (2. order) : 0.4827392E+01  (-0.1063747E+01)
 number of electron    1923.0000023 magnetization       1.0000000
 augmentation part      495.8024651 magnetization       0.5721688

 Broyden mixing:
  rms(total) = 0.13041E+01    rms(broyden)= 0.13037E+01
  rms(prec ) = 0.14357E+01
  weight for this iteration     100.00

 eigenvalues of (default mixing * dielectric matrix)
  average eigenvalue GAMMA=   0.8323
  1.3044  1.3044  0.6873  0.6873  0.5052  0.5052

 Free energy of the ion-electron system (eV)
  ---------------------------------------------------
  alpha Z        PSCENC =      6118.73324990
  Ewald energy   TEWEN  =   -103187.89482328
  -Hartree energ DENC   =    -65493.53249223
  -exchange      EXHF   =         0.00000000
  -V(xc)+E(xc)   XCENC  =      8973.52088762
  PAW double counting   =    199808.83543044  -200812.58990430
  entropy T*S    EENTRO =        -0.00000000
  eigenvalues    EBANDS =    -25745.37990840
  atomic energy  EATOM  =    178577.25249613
  Solvation  Ediel_sol  =         0.00000000
  ---------------------------------------------------
  free energy    TOTEN  =     -1761.05506412 eV

  energy without entropy =    -1761.05506412  energy(sigma->0) =    -1761.05506412


--------------------------------------------------------------------------------------------------------




--------------------------------------- Iteration      1(   8)  ---------------------------------------


    POTLOK:  cpu time    0.2623: real time    0.2644
    SETDIJ:  cpu time    1.4707: real time    1.4715
     EDDAV:  cpu time  147.8596: real time  148.9797
       DOS:  cpu time    0.0022: real time    0.0022
    CHARGE:  cpu time    5.2731: real time    5.2765
    MIXING:  cpu time    0.1313: real time    0.1313
    --------------------------------------------
      LOOP:  cpu time  154.9992: real time  156.1256

 eigenvalue-minimisations  : 26628
 total energy-change (2. order) : 0.7502386E+00  (-0.9144369E+00)
[...]
   81        1.574   3.461   0.000   5.035
   82        1.574   3.462   0.000   5.036
   83        1.574   3.461   0.000   5.035
   84        1.576   3.474   0.000   5.050
   85        1.575   3.463   0.000   5.038
   86        1.575   3.466   0.000   5.040
   87        1.569   3.474   0.000   5.043
   88        1.575   3.469   0.000   5.044
   89        1.575   3.463   0.000   5.037
   90        1.575   3.458   0.000   5.033
   91        1.574   3.462   0.000   5.036
   92        1.574   3.460   0.000   5.034
   93        1.578   3.470   0.000   5.047
   94        1.576   3.473   0.000   5.050
   95        1.568   3.499   0.000   5.067
   96        1.575   3.464   0.000   5.039
   97        1.575   3.468   0.000   5.043
   98        1.576   3.475   0.000   5.052
   99        1.575   3.464   0.000   5.039
  100        1.567   3.492   0.000   5.059
  101        1.574   3.459   0.000   5.033
  102        1.575   3.459   0.000   5.034
  103        1.576   3.459   0.000   5.035
  104        1.574   3.460   0.000   5.034
  105        1.577   3.472   0.000   5.049
  106        1.575   3.463   0.000   5.038
  107        1.575   3.463   0.000   5.038
  108        1.576   3.474   0.000   5.050
  109        1.575   3.463   0.000   5.038
  110        1.575   3.461   0.000   5.036
  111        1.576   3.473   0.000   5.049
  112        1.577   3.462   0.000   5.039
  113        1.576   3.474   0.000   5.050
  114        1.577   3.475   0.000   5.052
  115        1.574   3.466   0.000   5.041
  116        1.575   3.463   0.000   5.038
  117        1.575   3.461   0.000   5.036
  118        1.576   3.463   0.000   5.038
  119        1.576   3.475   0.000   5.051
  120        1.575   3.461   0.000   5.036
  121        1.574   3.464   0.000   5.038
  122        1.577   3.469   0.000   5.046
  123        1.577   3.474   0.000   5.051
  124        1.576   3.469   0.000   5.045
  125        1.576   3.475   0.000   5.051
  126        1.576   3.472   0.000   5.047
  127        1.575   3.458   0.000   5.033
  128        1.574   3.460   0.000   5.035
  129        1.576   3.472   0.000   5.048
  130        1.737   4.369   0.000   6.106
  131        1.737   4.371   0.000   6.107
  132        1.737   4.379   0.000   6.117
  133        1.738   4.387   0.000   6.126
  134        1.739   4.386   0.000   6.125
  135        1.737   4.368   0.000   6.105
  136        1.736   4.367   0.000   6.104
  137        1.738   4.380   0.000   6.119
  138        1.738   4.381   0.000   6.119
  139        1.739   4.386   0.000   6.125
  140        1.739   4.388   0.000   6.127
  141        1.738   4.381   0.000   6.119
  142        1.738   4.380   0.000   6.118
  143        1.738   4.386   0.000   6.124
  144        1.739   4.387   0.000   6.126
  145        1.738   4.391   0.000   6.129
  146        1.737   4.382   0.000   6.119
  147        1.737   4.369   0.000   6.106
  148        1.736   4.368   0.000   6.104
  149        1.739   4.385   0.000   6.125
  150        1.738   4.389   0.000   6.127
  151        1.736   4.388   0.000   6.124
  152        1.738   4.385   0.000   6.123
  153        1.737   4.381   0.000   6.119
  154        1.737   4.370   0.000   6.107
  155        1.737   4.372   0.000   6.109
  156        1.737   4.369   0.000   6.106
  157        1.737   4.368   0.000   6.104
  158        1.738   4.376   0.000   6.114
  159        1.738   4.376   0.000   6.114
  160        1.737   4.370   0.000   6.106
  161        1.736   4.370   0.000   6.107
  162        1.736   4.369   0.000   6.105
  163        1.736   4.367   0.000   6.103
  164        1.738   4.380   0.000   6.118
  165        1.737   4.371   0.000   6.108
  166        1.737   4.370   0.000   6.107
  167        1.737   4.370   0.000   6.106
  168        1.737   4.370   0.000   6.107
  169        1.739   4.377   0.000   6.116
  170        1.738   4.380   0.000   6.118
  171        1.737   4.370   0.000   6.107
  172        1.738   4.388   0.000   6.126
  173        1.737   4.369   0.000   6.106
  174        1.737   4.369   0.000   6.106
  175        1.738   4.380   0.000   6.118
  176        1.737   4.366   0.000   6.103
  177        1.738   4.379   0.000   6.117
  178        1.737   4.369   0.000   6.106
  179        1.738   4.376   0.000   6.114
  180        1.738   4.379   0.000   6.117
  181        1.736   4.369   0.000   6.106
  182        1.738   4.378   0.000   6.115
  183        1.737   4.369   0.000   6.105
  184        1.737   4.380   0.000   6.117
  185        1.737   4.382   0.000   6.119
  186        1.737   4.381   0.000   6.118
  187        1.737   4.371   0.000   6.107
  188        1.738   4.381   0.000   6.118
  189        1.738   4.381   0.000   6.119
  190        1.738   4.379   0.000   6.118
  191        1.739   4.384   0.000   6.123
  192        1.737   4.370   0.000   6.106
  193        1.739   4.386   0.000   6.125
  194        1.737   4.368   0.000   6.105
  195        1.737   4.371   0.000   6.107
  196        1.737   4.381   0.000   6.118
  197        1.737   4.370   0.000   6.107
  198        1.737   4.380   0.000   6.117
  199        1.738   4.379   0.000   6.117
  200        1.738   4.380   0.000   6.118
  201        1.737   4.378   0.000   6.116
  202        1.738   4.378   0.000   6.116
  203        1.738   4.381   0.000   6.119
  204        1.738   4.378   0.000   6.116
  205        1.737   4.379   0.000   6.116
  206        1.737   4.368   0.000   6.105
  207        1.737   4.381   0.000   6.118
  208        1.737   4.381   0.000   6.118
  209        1.738   4.379   0.000   6.117
  210        1.737   4.370   0.000   6.106
  211        1.737   4.372   0.000   6.109
  212        1.737   4.369   0.000   6.105
  213        1.739   4.375   0.000   6.113
  214        1.736   4.367   0.000   6.104
  215        1.739   4.379   0.000   6.118
  216        1.736   4.369   0.000   6.105
  217        1.737   4.368   0.000   6.104
  218        1.737   4.377   0.000   6.114
  219        1.738   4.380   0.000   6.119
  220        1.738   4.381   0.000   6.119
  221        1.738   4.380   0.000   6.118
  222        1.737   4.384   0.000   6.121
  223        1.737   4.380   0.000   6.118
  224        1.738   4.380   0.000   6.118
  225        1.738   4.378   0.000   6.116
  226        1.738   4.379   0.000   6.117
  227        1.737   4.379   0.000   6.116
  228        1.738   4.378   0.000   6.116
  229        1.738   4.380   0.000   6.118
  230        1.737   4.370   0.000   6.107
  231        1.737   4.382   0.000   6.120
  232        1.737   4.369   0.000   6.106
  233        1.738   4.381   0.000   6.119
  234        1.737   4.368   0.000   6.105
  235        1.737   4.368   0.000   6.105
  236        1.739   4.388   0.000   6.127
  237        1.739   4.387   0.000   6.126
  238        1.737   4.377   0.000   6.114
  239        1.738   4.379   0.000   6.117
  240        1.737   4.381   0.000   6.118
  241        1.738   4.378   0.000   6.116
  242        1.738   4.387   0.000   6.125
  243        1.738   4.386   0.000   6.124
  244        1.738   4.380   0.000   6.118
  245        1.738   4.379   0.000   6.116
  246        1.738   4.378   0.000   6.116
  247        1.738   4.387   0.000   6.125
  248        1.738   4.377   0.000   6.115
  249        1.738   4.385   0.000   6.123
  250        1.739   4.374   0.000   6.112
  251        1.738   4.380   0.000   6.118
  252        1.737   4.380   0.000   6.117
  253        1.738   4.379   0.000   6.117
  254        1.739   4.388   0.000   6.127
  255        1.738   4.378   0.000   6.116
  256        1.739   4.382   0.000   6.122
  257        1.738   4.379   0.000   6.117
--------------------------------------------------
tot        345.5561195.617 112.5271653.700
 


 magnetization (x)
 
# of ion       s       p       d       tot
------------------------------------------
    1       -0.000  -0.000   0.000  -0.000
    2        0.000  -0.000   0.000   0.000
    3        0.000   0.000   0.000   0.000
    4       -0.000  -0.000  -0.000  -0.000
    5        0.000  -0.000   0.000   0.000
    6        0.000   0.000   0.002   0.002
    7        0.000   0.000   0.000   0.000
    8        0.000   0.000   0.000   0.000
    9        0.000   0.000   0.002   0.002
   10       -0.000  -0.000  -0.000  -0.000
   11       -0.000  -0.000  -0.000  -0.000
   12       -0.000  -0.000  -0.000  -0.000
   13       -0.000  -0.000  -0.000  -0.000
   14       -0.000  -0.000   0.008   0.008
   15        0.000   0.000   0.000   0.000
   16       -0.000  -0.000   0.005   0.005
   17        0.000   0.000   0.000   0.000
   18       -0.000  -0.000  -0.000  -0.000
   19        0.000   0.000  -0.000   0.000
   20       -0.000   0.000  -0.000  -0.000
   21       -0.000   0.000   0.000   0.000
   22        0.000   0.000   0.000   0.000
   23        0.000   0.000   0.000   0.000
   24       -0.000  -0.000   0.006   0.006
   25        0.000  -0.000   0.004   0.004
   26        0.000   0.000  -0.000  -0.000
   27       -0.000  -0.000  -0.000  -0.000
   28       -0.000  -0.000  -0.000  -0.000
   29        0.000   0.000  -0.000  -0.000
   30       -0.000  -0.000   0.000   0.000
   31        0.000   0.000   0.000   0.000
   32        0.005   0.007   0.921   0.932
   33       -0.000  -0.000   0.000   0.000
   34       -0.000  -0.000  -0.000  -0.000
   35       -0.000  -0.000   0.000   0.000
   36        0.000  -0.000   0.000   0.000
   37       -0.000  -0.000  -0.000  -0.000
   38       -0.000  -0.000   0.000   0.000
   39       -0.000  -0.000  -0.000  -0.000
   40       -0.000  -0.000  -0.000  -0.000
   41       -0.000  -0.000   0.000   0.000
   42       -0.000  -0.000   0.000   0.000
   43       -0.000  -0.000  -0.000  -0.000
   44       -0.000  -0.000  -0.000  -0.000
   45        0.000  -0.000  -0.000  -0.000
   46       -0.000  -0.000  -0.000  -0.000
   47       -0.000   0.000  -0.000  -0.000
   48        0.000   0.000   0.000   0.000
   49        0.000  -0.000  -0.000  -0.000
   50       -0.000  -0.000  -0.000  -0.000
   51       -0.000  -0.000  -0.000  -0.000
   52       -0.000  -0.000   0.000   0.000
   53       -0.000  -0.000  -0.000  -0.000
   54        0.000  -0.000  -0.000  -0.000
   55       -0.000  -0.000  -0.000  -0.000
   56       -0.000  -0.000  -0.000  -0.000
   57       -0.000  -0.000  -0.000  -0.000
   58       -0.000  -0.000  -0.000  -0.000
   59       -0.000  -0.000  -0.000  -0.000
   60       -0.000  -0.000  -0.000  -0.000
   61       -0.000  -0.000   0.000   0.000
   62       -0.000  -0.000  -0.000  -0.000
   63        0.000  -0.000  -0.000  -0.000
   64       -0.000  -0.000  -0.002  -0.003
   65        0.000  -0.000   0.000   0.000
   66        0.000   0.000   0.000   0.000
   67       -0.000  -0.000   0.000  -0.000
   68        0.000   0.000   0.000   0.000
   69       -0.000  -0.000   0.000  -0.000
   70        0.000  -0.000   0.000  -0.000
   71        0.000   0.000   0.000   0.000
   72       -0.000  -0.000   0.000  -0.000
   73       -0.000  -0.000   0.000  -0.000
   74        0.000  -0.000   0.000  -0.000
   75       -0.000  -0.000   0.000  -0.000
   76       -0.000   0.000   0.000   0.000
   77       -0.000  -0.000   0.000  -0.000
   78       -0.000  -0.000   0.000  -0.000
   79       -0.000  -0.000   0.000  -0.000
   80       -0.000  -0.000   0.000  -0.000
   81        0.000  -0.000   0.000  -0.000
   82       -0.000  -0.000   0.000  -0.000
   83       -0.000  -0.000   0.000  -0.000
   84       -0.000  -0.000   0.000  -0.000
   85       -0.000  -0.000   0.000  -0.000
   86       -0.000  -0.000   0.000  -0.000
   87       -0.000  -0.000   0.000  -0.000
   88       -0.000  -0.000   0.000  -0.000
   89       -0.000  -0.000   0.000  -0.000
   90       -0.000  -0.000   0.000  -0.000
   91       -0.000  -0.000   0.000  -0.000
   92       -0.000  -0.000   0.000  -0.000
   93       -0.000  -0.000   0.000  -0.000
   94       -0.000  -0.000   0.000  -0.000
   95       -0.000  -0.000   0.000  -0.000
   96        0.000   0.000   0.000   0.000
   97       -0.000  -0.000   0.000  -0.000
   98       -0.000  -0.000   0.000  -0.000
   99       -0.000  -0.000   0.000  -0.000
  100       -0.001  -0.013   0.000  -0.013
  101       -0.000  -0.000   0.000  -0.000
  102       -0.000  -0.000   0.000  -0.000
  103       -0.000  -0.000   0.000  -0.000
  104       -0.000  -0.000   0.000  -0.000
  105       -0.000  -0.000   0.000  -0.000
  106       -0.000  -0.000   0.000  -0.000
  107       -0.000  -0.000   0.000  -0.000
  108        0.000   0.000   0.000   0.000
  109       -0.000  -0.000   0.000  -0.000
  110       -0.000  -0.000   0.000  -0.000
  111       -0.000  -0.000   0.000  -0.000
  112       -0.000  -0.000   0.000  -0.000
  113       -0.000  -0.000   0.000  -0.000
  114       -0.000  -0.001   0.000  -0.001
  115       -0.000  -0.000   0.000  -0.000
  116       -0.000  -0.000   0.000  -0.000
  117       -0.000  -0.000   0.000  -0.000
  118        0.000   0.000   0.000   0.000
  119        0.000  -0.000   0.000  -0.000
  120        0.000   0.000   0.000   0.000
  121       -0.000  -0.001   0.000  -0.001
  122       -0.000  -0.000   0.000  -0.000
  123       -0.000  -0.000   0.000  -0.000
  124        0.000  -0.000   0.000  -0.000
  125       -0.000   0.000   0.000   0.000
  126        0.000   0.000   0.000   0.000
  127       -0.000  -0.000   0.000  -0.000
  128        0.000  -0.000   0.000  -0.000
  129       -0.000  -0.000   0.000  -0.000
  130       -0.000  -0.000   0.000  -0.000
  131        0.000   0.000   0.000   0.000
  132       -0.000  -0.000   0.000  -0.000
  133        0.000  -0.000   0.000  -0.000
  134        0.000   0.000   0.000   0.000
  135        0.000   0.000   0.000   0.000
  136       -0.000  -0.000   0.000  -0.000
  137       -0.000  -0.000   0.000  -0.000
  138       -0.000  -0.000   0.000  -0.000
  139        0.000   0.000   0.000   0.000
  140       -0.000   0.000   0.000   0.000
  141       -0.000   0.000   0.000   0.000
  142       -0.000   0.000   0.000   0.000
  143       -0.000  -0.000   0.000  -0.000
  144        0.000   0.000   0.000   0.000
  145       -0.000   0.003   0.000   0.003
  146       -0.000  -0.000   0.000  -0.000
  147       -0.000  -0.000   0.000  -0.000
  148        0.000  -0.000   0.000  -0.000
  149       -0.000  -0.000   0.000  -0.000
  150       -0.000  -0.000   0.000  -0.000
  151       -0.000   0.003   0.000   0.003
  152       -0.000  -0.000   0.000  -0.000
  153       -0.000  -0.000   0.000  -0.000
  154       -0.000  -0.000   0.000  -0.000
  155       -0.000  -0.000   0.000  -0.000
  156       -0.000  -0.000   0.000  -0.000
  157       -0.000  -0.000   0.000  -0.000
  158        0.000  -0.000   0.000  -0.000
  159       -0.000  -0.000   0.000  -0.000
  160        0.000  -0.000   0.000  -0.000
  161       -0.000  -0.000   0.000  -0.000
  162       -0.000  -0.000   0.000  -0.000
  163       -0.000  -0.000   0.000  -0.000
  164        0.000   0.000   0.000   0.000
  165       -0.000  -0.000   0.000  -0.000
  166       -0.000  -0.000   0.000  -0.000
  167       -0.000   0.000   0.000   0.000
  168       -0.000   0.000   0.000   0.000
  169        0.000  -0.000   0.000  -0.000
  170        0.000   0.000   0.000   0.000
  171       -0.000  -0.000   0.000  -0.000
  172        0.000  -0.000   0.000  -0.000
  173       -0.000  -0.000   0.000  -0.000
  174       -0.000  -0.000   0.000  -0.000
  175       -0.000  -0.000   0.000  -0.000
  176       -0.000  -0.000   0.000  -0.000
  177       -0.000   0.000   0.000   0.000
  178       -0.000  -0.000   0.000  -0.000
  179       -0.000  -0.000   0.000  -0.000
  180       -0.000  -0.000   0.000  -0.000
  181       -0.000  -0.000   0.000  -0.000
  182       -0.000  -0.000   0.000  -0.000
  183       -0.000  -0.000   0.000  -0.000
  184        0.000   0.000   0.000   0.000
  185       -0.000  -0.000   0.000  -0.000
  186       -0.000  -0.000   0.000  -0.000
  187       -0.000  -0.000   0.000  -0.000
  188       -0.000  -0.000   0.000  -0.000
  189       -0.000  -0.000   0.000  -0.000
  190       -0.000  -0.000   0.000  -0.000
  191       -0.000  -0.000   0.000  -0.000
  192       -0.000  -0.000   0.000  -0.000
  193        0.000  -0.000   0.000  -0.000
  194       -0.000  -0.000   0.000  -0.000
  195       -0.000  -0.000   0.000  -0.000
  196       -0.000  -0.000   0.000  -0.000
  197       -0.000  -0.000   0.000  -0.000
  198       -0.000   0.000   0.000   0.000
  199       -0.000  -0.000   0.000  -0.000
  200       -0.000  -0.000   0.000  -0.000
  201       -0.000  -0.000   0.000  -0.000
  202       -0.000  -0.000   0.000  -0.000
  203       -0.000  -0.000   0.000  -0.000
  204       -0.000  -0.000   0.000  -0.000
  205       -0.000  -0.000   0.000  -0.000
  206       -0.000  -0.000   0.000  -0.000
  207       -0.000  -0.008   0.000  -0.008
  208       -0.000  -0.000   0.000  -0.000
  209        0.000  -0.000   0.000  -0.000
  210       -0.000  -0.000   0.000  -0.000
  211       -0.000  -0.000   0.000  -0.000
  212       -0.000  -0.000   0.000  -0.000
  213        0.000   0.000   0.000   0.000
  214       -0.000  -0.000   0.000  -0.000
  215       -0.000  -0.000   0.000  -0.000
  216       -0.000   0.000   0.000   0.000
  217        0.000   0.000   0.000   0.000
  218       -0.000  -0.000   0.000  -0.000
  219        0.000  -0.000   0.000  -0.000
  220        0.000  -0.000   0.000  -0.000
  221       -0.000  -0.000   0.000  -0.000
  222       -0.000   0.003   0.000   0.003
  223       -0.000   0.000   0.000   0.000
  224       -0.000   0.000   0.000   0.000
  225        0.000   0.000   0.000   0.000
  226       -0.000   0.000   0.000   0.000
  227        0.000  -0.000   0.000  -0.000
  228        0.000   0.000   0.000   0.000
  229       -0.000  -0.000   0.000  -0.000
  230       -0.000   0.000   0.000   0.000
  231       -0.000   0.002   0.000   0.001
  232        0.000  -0.000   0.000  -0.000
  233       -0.000   0.000   0.000   0.000
  234       -0.000   0.000   0.000   0.000
  235       -0.000  -0.000   0.000  -0.000
  236       -0.000   0.000   0.000   0.000
  237       -0.000  -0.000   0.000  -0.000
  238       -0.000   0.000   0.000   0.000
  239       -0.000  -0.000   0.000  -0.000
  240       -0.000   0.000   0.000   0.000
  241       -0.000  -0.000   0.000  -0.000
  242       -0.000  -0.000   0.000  -0.000
  243       -0.000  -0.000   0.000  -0.000
  244       -0.000  -0.000   0.000  -0.000
  245       -0.000  -0.000   0.000  -0.000
  246        0.000  -0.000   0.000  -0.000
  247       -0.000   0.000   0.000   0.000
  248       -0.000  -0.000   0.000  -0.000
  249       -0.000  -0.000   0.000  -0.000
  250        0.000   0.000   0.000   0.000
  251       -0.000  -0.000   0.000  -0.000
  252       -0.000  -0.000   0.000  -0.000
  253       -0.000  -0.000   0.000  -0.000
  254       -0.000  -0.000   0.000  -0.000
  255       -0.000   0.000   0.000   0.000
  256        0.000  -0.000   0.000  -0.000
  257        0.000  -0.000   0.000  -0.000
--------------------------------------------------
tot          0.002  -0.008   0.946   0.940
 

 total amount of memory used by VASP MPI-rank0   291473. kBytes
=======================================================================

   base      :      30000. kBytes
   nonlr-proj:      49438. kBytes
   fftplans  :      27976. kBytes
   grid      :      34041. kBytes
   one-center:       1026. kBytes
   wavefun   :     148992. kBytes
 
  
  
 General timing and accounting informations for this job:
 ========================================================
  
                  Total CPU time used (sec):     5916.246
                            User time (sec):     5485.242
                          System time (sec):      431.003
                         Elapsed time (sec):     5962.694
  
                   Maximum memory used (kb):      629636.
                   Average memory used (kb):           0.
  
                          Minor page faults:       566509
                          Major page faults:           18
                 Voluntary context switches:        40520
