 vasp.6.3.0 20Jan22 (build Jan 25 2022 13:20:17) complex                        
  
 executed on             LinuxIFC date 2024.06.12  13:24:30
 running on   80 total cores
 distrk:  each k-point on   80 cores,    1 groups
 distr:  one band on NCORE=   8 cores,   10 groups


--------------------------------------------------------------------------------------------------------


 INCAR:
   SYSTEM = LTO
   ISTART = 1
   ENCUT = 700.0
   IALGO = 38
   EDIFF = 1E-6
   PREC = Accurate
   ISPIN = 2
   LMAXMIX = 4
   ADDGRID = .TRUE.
   LASPH = .TRUE.
   LREAL = Auto
   ROPT = 1E-4 1E-4 1E-4
   GGA = PS
   LDAU = .TRUE.
   LDAUTYPE = 2
   LDAUL = 2   -1    -1
   LDAUU = 4.2  0.0  0.0
   LDAUJ = 0.0  0.0  0.0
   NSW = 100
   EDIFFG = -0.01
   IBRION = 1
   ISIF = 3
   ISMEAR = 0
   SIGMA = 0.01
   ISYM = 0
   LORBIT = 11
   NEDOS = 3001
   NWRITE = 2
   NCORE = 8

 POTCAR:   PAW_PBE Ti_pv 07Sep2000                
 POTCAR:   PAW_PBE O 08Apr2002                    
 POTCAR:    PAW_PBE F 08Apr2002                   
 -----------------------------------------------------------------------------
|                                                                             |
|           W    W    AA    RRRRR   N    N  II  N    N   GGGG   !!!           |
|           W    W   A  A   R    R  NN   N  II  NN   N  G    G  !!!           |
|           W    W  A    A  R    R  N N  N  II  N N  N  G       !!!           |
|           W WW W  AAAAAA  RRRRR   N  N N  II  N  N N  G  GGG   !            |
|           WW  WW  A    A  R   R   N   NN  II  N   NN  G    G                |
|           W    W  A    A  R    R  N    N  II  N    N   GGGG   !!!           |
|                                                                             |
|     You use a magnetic or noncollinear calculation, but did not specify     |
|     the initial magnetic moment with the MAGMOM tag. Note that a            |
|     default of 1 will be used for all atoms. This ferromagnetic setup       |
|     may break the symmetry of the crystal, in particular it may rule        |
|     out finding an antiferromagnetic solution. Thence, we recommend         |
|     setting the initial magnetic moment manually or verifying carefully     |
|     that this magnetic setup is desired.                                    |
|                                                                             |
 -----------------------------------------------------------------------------

 POTCAR:   PAW_PBE Ti_pv 07Sep2000                
   VRHFIN =Ti: d3 s1                                                                                
   LEXCH  = PE                                                                                      
   EATOM  =  1042.3781 eV,   76.6126 Ry                                                             
                                                                                                    
   TITEL  = PAW_PBE Ti_pv 07Sep2000                                                                 
   LULTRA =        F    use ultrasoft PP ?                                                          
   IUNSCR =        1    unscreen: 0-lin 1-nonlin 2-no                                               
   RPACOR =    2.200    partial core radius                                                         
   POMASS =   47.880; ZVAL   =   10.000    mass and valenz                                          
   RCORE  =    2.500    outmost cutoff radius                                                       
   RWIGS  =    2.500; RWIGS  =    1.323    wigner-seitz radius (au A)                               
   ENMAX  =  222.338; ENMIN  =  166.753 eV                                                          
   RCLOC  =    1.701    cutoff for local pot                                                        
   LCOR   =        T    correct aug charges                                                         
   LPAW   =        T    paw PP                                                                      
   EAUG   =  482.848                                                                                
   DEXC   =    -.008                                                                                
   RMAX   =    3.092    core radius for proj-oper                                                   
   RAUG   =    1.300    factor for augmentation sphere                                              
   RDEP   =    2.538    radius for radial grids                                                     
   QCUT   =   -4.042; QGAM   =    8.085    optimization parameters                                  
                                                                                                    
   Description                                                                                      
     l     E      TYP  RCUT    TYP  RCUT                                                            
     1   .000     23  2.300                                                                         
     1  -.100     23  2.300                                                                         
     2   .000     23  2.500                                                                         
     2   .000     23  2.500                                                                         
     0   .000     23  2.500                                                                         
     0  1.500     23  2.500                                                                         
     3   .000      7   .000                                                                         
  local pseudopotential read in
  partial core-charges read in
  atomic valenz-charges read in
  non local Contribution for L=           1  read in
    real space projection operators read in
  non local Contribution for L=           1  read in
    real space projection operators read in
  non local Contribution for L=           2  read in
    real space projection operators read in
  non local Contribution for L=           2  read in
    real space projection operators read in
  non local Contribution for L=           0  read in
    real space projection operators read in
  non local Contribution for L=           0  read in
    real space projection operators read in
    PAW grid and wavefunctions read in
 
   number of l-projection  operators is LMAX  =           6
   number of lm-projection operators is LMMAX =          18
 
 POTCAR:   PAW_PBE O 08Apr2002                    
   VRHFIN =O: s2p4                                                                                  
   LEXCH  = PE                                                                                      
   EATOM  =   432.3788 eV,   31.7789 Ry                                                             
                                                                                                    
   TITEL  = PAW_PBE O 08Apr2002                                                                     
   LULTRA =        F    use ultrasoft PP ?                                                          
   IUNSCR =        0    unscreen: 0-lin 1-nonlin 2-no                                               
   RPACOR =     .000    partial core radius                                                         
   POMASS =   16.000; ZVAL   =    6.000    mass and valenz                                          
   RCORE  =    1.520    outmost cutoff radius                                                       
   RWIGS  =    1.550; RWIGS  =     .820    wigner-seitz radius (au A)                               
   ENMAX  =  400.000; ENMIN  =  300.000 eV                                                          
   ICORE  =        2    local potential                                                             
   LCOR   =        T    correct aug charges                                                         
   LPAW   =        T    paw PP                                                                      
   EAUG   =  605.392                                                                                
   DEXC   =     .000                                                                                
   RMAX   =    2.264    core radius for proj-oper                                                   
   RAUG   =    1.300    factor for augmentation sphere                                              
   RDEP   =    1.550    radius for radial grids                                                     
   QCUT   =   -5.520; QGAM   =   11.041    optimization parameters                                  
                                                                                                    
   Description                                                                                      
     l     E      TYP  RCUT    TYP  RCUT                                                            
     0   .000     23  1.200                                                                         
     0  -.700     23  1.200                                                                         
     1   .000     23  1.520                                                                         
     1   .600     23  1.520                                                                         
     2   .000      7  1.500                                                                         
  local pseudopotential read in
  atomic valenz-charges read in
  non local Contribution for L=           0  read in
    real space projection operators read in
  non local Contribution for L=           0  read in
    real space projection operators read in
  non local Contribution for L=           1  read in
    real space projection operators read in
  non local Contribution for L=           1  read in
    real space projection operators read in
    PAW grid and wavefunctions read in
 
   number of l-projection  operators is LMAX  =           4
   number of lm-projection operators is LMMAX =           8
 
 POTCAR:    PAW_PBE F 08Apr2002                   
   VRHFIN =F: s2p5                                                                                  
   LEXCH  = PE                                                                                      
   EATOM  =   659.6475 eV,   48.4827 Ry                                                             
                                                                                                    
   TITEL  = PAW_PBE F 08Apr2002                                                                     
   LULTRA =        F    use ultrasoft PP ?                                                          
   IUNSCR =        1    unscreen: 0-lin 1-nonlin 2-no                                               
   RPACOR =    1.200    partial core radius                                                         
   POMASS =   18.998; ZVAL   =    7.000    mass and valenz                                          
   RCORE  =    1.520    outmost cutoff radius                                                       
   RWIGS  =    1.500; RWIGS  =    0.794    wigner-seitz radius (au A)                               
   ENMAX  =  400.000; ENMIN  =  300.000 eV                                                          
   ICORE  =        2    local potential                                                             
   LCOR   =        T    correct aug charges                                                         
   LPAW   =        T    paw PP                                                                      
   EAUG   =  613.614                                                                                
   RMAX   =    1.555    core radius for proj-oper                                                   
   RAUG   =    1.300    factor for augmentation sphere                                              
   RDEP   =    1.539    radius for radial grids                                                     
   RDEPT  =    1.299    core radius for aug-charge                                                  
                                                                                                    
   Atomic configuration                                                                             
    4 entries                                                                                       
     n  l   j            E        occ.                                                              
     1  0  0.50      -663.3661   2.0000                                                             
     2  0  0.50       -29.8995   2.0000                                                             
     2  1  0.50       -11.1114   5.0000                                                             
     3  2  1.50       -10.8847   0.0000                                                             
   Description                                                                                      
     l       E           TYP  RCUT    TYP  RCUT                                                     
     0    -29.8995018     23  1.200                                                                 
     0     -9.5240782     23  1.200                                                                 
     1    -11.1113914     23  1.520                                                                 
     1      1.3605826     23  1.520                                                                 
     2    -10.8846608      7  1.500                                                                 
  local pseudopotential read in
  partial core-charges read in
  partial kinetic energy density read in
  atomic valenz-charges read in
  non local Contribution for L=           0  read in
    real space projection operators read in
  non local Contribution for L=           0  read in
    real space projection operators read in
  non local Contribution for L=           1  read in
    real space projection operators read in
  non local Contribution for L=           1  read in
    real space projection operators read in
    PAW grid and wavefunctions read in
 
   number of l-projection  operators is LMAX  =           4
   number of lm-projection operators is LMMAX =           8
 
 Optimization of the real space projectors (new method)

 maximal supplied QI-value         = 15.12
 optimisation between [QCUT,QGAM] = [ 13.45, 27.06] = [ 50.69,205.06] Ry 
 Optimized for a Real-space Cutoff    1.49 Angstroem

   l    n(q)    QCUT    max X(q) W(low)/X(q) W(high)/X(q)  e(spline) 
   1     12    13.455     4.841    0.13E-05    0.83E-06    0.56E-07
   1     12    13.455     5.701    0.32E-04    0.25E-04    0.17E-06
   2     11    13.455     4.569    0.64E-05    0.34E-05    0.50E-07
   2     11    13.455    32.276    0.49E-04    0.38E-04    0.46E-06
   0     12    13.455    30.046    0.17E-04    0.41E-05    0.51E-07
   0     12    13.455    45.433    0.12E-04    0.27E-04    0.38E-06
 Optimization of the real space projectors (new method)

 maximal supplied QI-value         = 24.76
 optimisation between [QCUT,QGAM] = [ 13.37, 26.98] = [ 50.04,203.89] Ry 
 Optimized for a Real-space Cutoff    1.17 Angstroem

   l    n(q)    QCUT    max X(q) W(low)/X(q) W(high)/X(q)  e(spline) 
   0      9    13.368     4.192    0.20E-04    0.58E-05    0.56E-07
   0      9    13.368     8.473    0.60E-04    0.52E-04    0.21E-06
   1      9    13.368     2.474    0.22E-04    0.17E-04    0.28E-07
   1      9    13.368     3.912    0.94E-04    0.97E-04    0.20E-06
 Optimization of the real space projectors (new method)

 maximal supplied QI-value         = 24.76
 optimisation between [QCUT,QGAM] = [ 13.37, 26.98] = [ 50.04,203.89] Ry 
 Optimized for a Real-space Cutoff    1.17 Angstroem

   l    n(q)    QCUT    max X(q) W(low)/X(q) W(high)/X(q)  e(spline) 
   0      9    13.368    14.049    0.39E-04    0.34E-04    0.16E-06
   0      9    13.368     8.945    0.54E-04    0.47E-04    0.20E-06
   1      9    13.368     7.086    0.99E-04    0.10E-03    0.23E-06
   1      9    13.368     6.747    0.86E-04    0.89E-04    0.21E-06
 -----------------------------------------------------------------------------
|                                                                             |
|               ----> ADVICE to this user running VASP <----                  |
|                                                                             |
|     You enforced a specific xc type in the INCAR file but a different       |
|     type was found in the POTCAR file.                                      |
|     I HOPE YOU KNOW WHAT YOU ARE DOING!                                     |
|                                                                             |
 -----------------------------------------------------------------------------

 PAW_PBE Ti_pv 07Sep2000                :
 energy of atom  1       EATOM=-1042.3781
 kinetic energy error for atom=    0.0006 (will be added to EATOM!!)
 PAW_PBE O 08Apr2002                    :
 energy of atom  2       EATOM= -432.3788
 kinetic energy error for atom=    0.0091 (will be added to EATOM!!)
  PAW_PBE F 08Apr2002                   :
 energy of atom  3       EATOM= -659.6475
 kinetic energy error for atom=    0.0140 (will be added to EATOM!!)
 
 
 POSCAR: Ti27 O27 F54
  positions in direct lattice
  velocities in cartesian coordinates
 exchange correlation table for  LEXCH =       14
   RHO(1)=    0.500       N(1)  =     2000
   RHO(2)=  100.500       N(2)  =     4000
 


--------------------------------------------------------------------------------------------------------


 ion  position               nearest neighbor table
   1  0.010  0.002  0.987-  46 1.79  37 1.83  55 1.94  59 1.94  86 2.08  91 2.09
   2  0.988  0.000  0.333-  42 1.79  56 1.92  60 1.92  92 1.93  91 1.93  73 2.05
   3  0.010  0.992  0.676-  38 1.84  46 1.86  30 1.86  57 2.04  92 2.07  87 2.08
   4  0.006  0.344  0.999-  28 1.77  39 1.89  94 1.94  93 1.94  88 2.04  55 2.07
   5  0.991  0.344  0.340-  29 1.81  43 1.85  47 1.87  93 2.04  74 2.09  56 2.09
   6  0.008  0.333  0.655-  47 1.79  40 1.87  58 1.95  57 1.95  89 2.05  94 2.08
   7  0.991  0.660  0.011-  48 1.82  44 1.86  28 1.89  59 2.03  75 2.06  96 2.07
   8  0.011  0.657  0.324-  41 1.83  29 1.83  48 1.84  95 2.05  60 2.08  90 2.13
   9  0.991  0.678  0.667-  30 1.80  45 1.84  96 1.94  95 1.94  58 2.07  76 2.07
  10  0.323  0.990  0.999-  31 1.81  37 1.82  98 1.95  97 1.95  61 2.07  77 2.08
  11  0.332  0.988  0.344-  32 1.80  49 1.82  73 1.96  78 1.97  97 2.06  62 2.10
  12  0.323  0.995  0.658-  38 1.82  49 1.84  33 1.91  63 2.03  98 2.06  79 2.08
  13  0.321  0.333  0.000-  39 1.77  61 1.93  99 1.93  64 1.93 100 1.94  80 2.07
  14  0.335  0.332  0.345-  50 1.78  62 1.92  74 1.92  65 1.92  81 1.93  99 2.08
  15  0.322  0.333  0.660-  40 1.79  50 1.88  66 1.93  63 1.94 100 2.03  82 2.06
  16  0.334  0.676  0.012-  51 1.79  31 1.84  75 1.94  83 1.95  64 2.07 102 2.09
  17  0.321  0.675  0.326-  41 1.80  32 1.85  51 1.86 101 2.05  65 2.07  84 2.12
  18  0.334  0.679  0.667-  33 1.76 102 1.93  76 1.94 101 1.94  85 1.94  66 2.08
  19  0.667  0.001  0.989-  52 1.78  77 1.92  86 1.93  67 1.93  70 1.94 103 2.06
  20  0.672  0.013  0.333-  34 1.77  42 1.87 103 1.94 104 1.95  78 2.00  71 2.12
  21  0.667  0.011  0.673-  35 1.80  52 1.88  79 1.93  87 1.93 104 2.03  72 2.06
  22  0.665  0.347  1.000-  36 1.75 106 1.93  80 1.93 105 1.93  88 1.94  67 2.09
  23  0.678  0.325  0.342-  43 1.80  53 1.86  34 1.86 105 2.05  81 2.08  68 2.09
  24  0.666  0.326  0.655-  53 1.79  35 1.86  82 1.94  89 1.95  69 2.03 106 2.09
  25  0.677  0.662  0.990-  44 1.80  54 1.83  36 1.91  70 2.03  83 2.05 107 2.10
  26  0.666  0.667  0.334-  84 1.89  90 1.89  71 1.89 107 1.89 108 1.90  68 1.90
  27  0.677  0.668  0.679-  54 1.79  45 1.81  72 1.95  69 1.96  85 2.05 108 2.12
  28  0.998  0.497  0.001-   4 1.77   7 1.89
  29  0.997  0.499  0.329-   5 1.81   8 1.83
  30  0.006  0.833  0.663-   9 1.80   3 1.86
  31  0.334  0.834  0.998-  10 1.81  16 1.84
  32  0.336  0.833  0.336-  11 1.80  17 1.85
  33  0.330  0.831  0.667-  18 1.76  12 1.91
  34  0.660  0.165  0.335-  20 1.77  23 1.86
  35  0.668  0.166  0.664-  21 1.80  24 1.86
  36  0.668  0.499  0.001-  22 1.75  25 1.91
  37  0.167  0.007  0.995-  10 1.82   1 1.83
  38  0.167  0.010  0.673-  12 1.82   3 1.84
  39  0.169  0.329  0.995-  13 1.77   4 1.89
  40  0.168  0.327  0.674-  15 1.79   6 1.87
  41  0.167  0.666  0.341-  17 1.80   8 1.83
  42  0.833  0.000  0.334-   2 1.79  20 1.87
  43  0.832  0.329  0.330-  23 1.80   5 1.85
  44  0.832  0.673  0.999-  25 1.80   7 1.86
  45  0.832  0.667  0.668-  27 1.81   9 1.84
  46  0.988  0.003  0.834-   1 1.79   3 1.86
  47  0.004  0.332  0.501-   6 1.79   5 1.87
  48  0.001  0.674  0.167-   7 1.82   8 1.84
  49  0.333  0.008  0.499-  11 1.82  12 1.84
  50  0.334  0.328  0.499-  14 1.78  15 1.88
  51  0.332  0.662  0.166-  16 1.79  17 1.86
  52  0.673  0.996  0.835-  19 1.78  21 1.88
  53  0.664  0.341  0.501-  24 1.79  23 1.86
  54  0.659  0.676  0.833-  27 1.79  25 1.83
  55  0.991  0.167  0.006-   1 1.94   4 2.07
  56  0.007  0.165  0.328-   2 1.92   5 2.09
  57  0.986  0.167  0.666-   6 1.95   3 2.04
  58  0.002  0.500  0.672-   6 1.95   9 2.07
  59  0.006  0.834  0.996-   1 1.94   7 2.03
  60  0.999  0.835  0.343-   2 1.92   8 2.08
  61  0.342  0.168  0.002-  13 1.93  10 2.07
  62  0.338  0.168  0.324-  14 1.92  11 2.10
  63  0.347  0.168  0.675-  15 1.94  12 2.03
  64  0.337  0.498  0.995-  13 1.93  16 2.07
  65  0.336  0.498  0.335-  14 1.92  17 2.07
  66  0.335  0.499  0.669-  15 1.93  18 2.08
  67  0.668  0.167  0.002-  19 1.93  22 2.09
  68  0.668  0.504  0.325-  26 1.90  23 2.09
  69  0.663  0.500  0.673-  27 1.96  24 2.03
  70  0.658  0.836  0.010-  19 1.94  25 2.03
  71  0.661  0.831  0.335-  26 1.89  20 2.12
  72  0.663  0.834  0.657-  27 1.95  21 2.06
  73  0.164  0.000  0.329-  11 1.96   2 2.05
  74  0.170  0.331  0.326-  14 1.92   5 2.09
  75  0.168  0.663  0.992-  16 1.94   7 2.06
  76  0.168  0.657  0.663-  18 1.94   9 2.07
  77  0.502  0.005  0.002-  19 1.92  10 2.08
  78  0.501  0.997  0.328-  11 1.97  20 2.00
  79  0.501  0.997  0.669-  21 1.93  12 2.08
  80  0.500  0.331  0.000-  22 1.93  13 2.07
  81  0.500  0.339  0.327-  14 1.93  23 2.08
  82  0.500  0.337  0.672-  24 1.94  15 2.06
  83  0.501  0.665  0.004-  16 1.95  25 2.05
  84  0.503  0.662  0.336-  26 1.89  17 2.12
  85  0.501  0.665  0.660-  18 1.94  27 2.05
  86  0.832  0.995  0.012-  19 1.93   1 2.08
  87  0.832  0.994  0.653-  21 1.93   3 2.08
  88  0.832  0.327  0.004-  22 1.94   4 2.04
  89  0.833  0.341  0.671-  24 1.95   6 2.05
  90  0.828  0.673  0.336-  26 1.89   8 2.13
  91  0.001  0.994  0.167-   2 1.93   1 2.09
  92  0.004  0.008  0.498-   2 1.93   3 2.07
  93  0.004  0.325  0.166-   4 1.94   5 2.04
  94  0.992  0.327  0.833-   4 1.94   6 2.08
  95  0.995  0.662  0.500-   9 1.94   8 2.05
  96  0.007  0.667  0.833-   9 1.94   7 2.07
  97  0.335  0.005  0.167-  10 1.95  11 2.06
  98  0.345  0.005  0.833-  10 1.95  12 2.06
  99  0.336  0.337  0.166-  13 1.93  14 2.08
 100  0.342  0.333  0.834-  13 1.94  15 2.03
 101  0.340  0.657  0.501-  18 1.94  17 2.05
 102  0.338  0.660  0.832-  18 1.93  16 2.09
 103  0.664  0.998  0.166-  20 1.94  19 2.06
 104  0.660  0.993  0.499-  20 1.95  21 2.03
 105  0.661  0.332  0.166-  22 1.93  23 2.05
 106  0.667  0.330  0.835-  22 1.93  24 2.09
 107  0.664  0.671  0.170-  26 1.89  25 2.10
 108  0.665  0.661  0.497-  26 1.90  27 2.12
 

IMPORTANT INFORMATION: All symmetrisations will be switched off!
NOSYMM: (Re-)initialisation of all symmetry stuff for point group C_1.


----------------------------------------------------------------------------------------

                                     Primitive cell                                     

  volume of cell :    1557.2266

  direct lattice vectors                    reciprocal lattice vectors
    11.591191662  0.001846019  0.000504317     0.086272409 -0.000013797 -0.000003704
     0.001854290 11.594606121 -0.000318050    -0.000013736  0.086247003  0.000002280
     0.000497361 -0.000306261 11.586912486    -0.000003755  0.000002368  0.086304268

  length of vectors
    11.591191819 11.594606274 11.586912501     0.086272410  0.086247004  0.086304268

  position of ions in fractional coordinates (direct lattice)
     0.009514505  0.001513929  0.987395447
     0.987733456  0.000087990  0.332859795
     0.009787342  0.992252812  0.675941053
     0.006475109  0.344335812  0.999094556
     0.990796191  0.343661943  0.340050109
     0.008296115  0.332931541  0.654858104
     0.991301456  0.659877150  0.011024787
     0.010808723  0.656615591  0.324185704
     0.990615361  0.678023105  0.667131123
     0.323137035  0.990180571  0.999451906
     0.332272128  0.988166435  0.343839181
     0.322607077  0.995291072  0.657625706
     0.321225891  0.332682104  0.000234021
     0.334690233  0.332064222  0.345424909
     0.322447913  0.333050476  0.660369599
     0.333900416  0.676273432  0.012120776
     0.320973193  0.674970207  0.325725682
     0.333744871  0.678816154  0.666796322
     0.667183480  0.000976187  0.988512217
     0.672495231  0.013326556  0.332525775
     0.667095583  0.010771623  0.673111267
     0.665482592  0.347334730  0.999918668
     0.677885203  0.324641881  0.341685244
     0.665828037  0.325868688  0.654533698
     0.677457003  0.662368034  0.989739701
     0.665506215  0.667339873  0.333862708
     0.676589385  0.668132440  0.679497016
     0.997895934  0.497067472  0.001062640
     0.996571212  0.499125303  0.328837818
     0.005681332  0.832755498  0.663339400
     0.333961888  0.834120835  0.998409225
     0.336106615  0.833436456  0.336330030
     0.329829608  0.830667188  0.666641308
     0.659934453  0.165305039  0.335434068
     0.667966552  0.166105626  0.664341649
     0.667801481  0.498663343  0.000787678
     0.167491187  0.007488579  0.995325682
     0.167344170  0.010499066  0.672793948
     0.168979713  0.328875277  0.995399352
     0.168348246  0.327284054  0.673745933
     0.167141685  0.666060424  0.341322273
     0.833227001  0.000008700  0.333922391
     0.832418985  0.328711519  0.329534727
     0.832188089  0.672794603  0.998525236
     0.832340591  0.666682171  0.668479577
     0.987657479  0.002798866  0.834166201
     0.003677518  0.332176977  0.500854497
     0.001186504  0.674370880  0.166793535
     0.333479482  0.008226553  0.499330671
     0.334242909  0.328366393  0.498985605
     0.332339242  0.662102856  0.166063657
     0.673071107  0.996274352  0.835004269
     0.663553560  0.341331696  0.500613394
     0.659367889  0.675676307  0.833186132
     0.991049433  0.166926570  0.005538121
     0.006603494  0.164656940  0.328198169
     0.986161131  0.166689926  0.665972916
     0.002228348  0.499826166  0.671916038
     0.005703492  0.834085855  0.996046912
     0.999084564  0.834817757  0.343043659
     0.342413173  0.167879902  0.001541154
     0.337626857  0.167704022  0.323718732
     0.346879003  0.168103624  0.674692048
     0.336880186  0.498275290  0.995459772
     0.336174115  0.497653610  0.334967923
     0.335372399  0.499119838  0.668541098
     0.668019222  0.166700248  0.002354093
     0.668191618  0.503708058  0.325321784
     0.662738305  0.499930179  0.673451591
     0.658293593  0.835511136  0.009777469
     0.661333502  0.830618651  0.335002732
     0.662564234  0.834174687  0.657060303
     0.164463084  0.000409227  0.328628503
     0.169909233  0.331151861  0.325989769
     0.167916983  0.662971095  0.992265042
     0.168196051  0.656629661  0.662952217
     0.501766611  0.005217970  0.002181665
     0.501156420  0.996668360  0.328452563
     0.501285598  0.996951006  0.668585672
     0.499789214  0.331025703  0.000093366
     0.499769866  0.339181778  0.327084624
     0.499592821  0.337236106  0.672451728
     0.501214384  0.664571753  0.003835452
     0.502829622  0.661678571  0.336021532
     0.500504432  0.664617812  0.660235582
     0.831713012  0.995364221  0.012334615
     0.831783935  0.994489151  0.653440567
     0.831512883  0.326820503  0.004177854
     0.832688975  0.341080675  0.670890312
     0.828216099  0.672755297  0.335839459
     0.000563738  0.993828879  0.166979000
     0.004003146  0.007603990  0.498270493
     0.004078448  0.325317303  0.165625702
     0.992295464  0.326922190  0.833444814
     0.994690697  0.661984842  0.500092972
     0.006775783  0.667089275  0.833385036
     0.334858500  0.004776767  0.166793707
     0.344738612  0.004955387  0.833496400
     0.335694754  0.337380054  0.165988055
     0.342359111  0.333463426  0.834487370
     0.340030705  0.657246028  0.501042730
     0.338262075  0.660403493  0.832412337
     0.664092357  0.998127966  0.165824222
     0.659655522  0.993057496  0.499090490
     0.660971973  0.332178645  0.165958905
     0.667224624  0.330264073  0.834593651
     0.663735145  0.670724769  0.170384850
     0.664689278  0.660941617  0.497318261

  ion indices of the primitive-cell ions
   primitive index   ion index
                 1           1
                 2           2
                 3           3
                 4           4
                 5           5
                 6           6
                 7           7
                 8           8
                 9           9
                10          10
                11          11
                12          12
                13          13
                14          14
                15          15
                16          16
                17          17
                18          18
                19          19
                20          20
                21          21
                22          22
                23          23
                24          24
                25          25
                26          26
                27          27
                28          28
                29          29
                30          30
                31          31
                32          32
                33          33
                34          34
                35          35
                36          36
                37          37
                38          38
                39          39
                40          40
                41          41
                42          42
                43          43
                44          44
                45          45
                46          46
                47          47
                48          48
                49          49
                50          50
                51          51
                52          52
                53          53
                54          54
                55          55
                56          56
                57          57
                58          58
                59          59
                60          60
                61          61
                62          62
                63          63
                64          64
                65          65
                66          66
                67          67
                68          68
                69          69
                70          70
                71          71
                72          72
                73          73
                74          74
                75          75
                76          76
                77          77
                78          78
                79          79
                80          80
                81          81
                82          82
                83          83
                84          84
                85          85
                86          86
                87          87
                88          88
                89          89
                90          90
                91          91
                92          92
                93          93
                94          94
                95          95
                96          96
                97          97
                98          98
                99          99
               100         100
               101         101
               102         102
               103         103
               104         104
               105         105
               106         106
               107         107
               108         108

----------------------------------------------------------------------------------------

 
 
 KPOINTS: Title                                   

Automatic generation of k-mesh.
 Grid dimensions read from file:
 generate k-points for:    3    3    3

 Generating k-lattice:

  Cartesian coordinates                     Fractional coordinates (reciprocal lattice)
     0.028757470 -0.000004599 -0.000001235     0.333333333  0.000000000 -0.000000000
    -0.000004579  0.028749001  0.000000760     0.000000000  0.333333333  0.000000000
    -0.000001252  0.000000789  0.028768089     0.000000000 -0.000000000  0.333333333

  Length of vectors
     0.028757470  0.028749001  0.028768089

  Shift w.r.t. Gamma in fractional coordinates (k-lattice)
     0.000000000  0.000000000  0.000000000

 
 Subroutine IBZKPT returns following result:
 ===========================================
 
 Found     14 irreducible k-points:
 
 Following reciprocal coordinates:
            Coordinates               Weight
  0.000000  0.000000  0.000000      1.000000
  0.333333 -0.000000 -0.000000      2.000000
 -0.000000  0.333333 -0.000000      2.000000
  0.333333  0.333333 -0.000000      2.000000
 -0.333333  0.333333 -0.000000      2.000000
  0.000000  0.000000  0.333333      2.000000
  0.333333 -0.000000  0.333333      2.000000
 -0.333333  0.000000  0.333333      2.000000
 -0.000000  0.333333  0.333333      2.000000
  0.333333  0.333333  0.333333      2.000000
 -0.333333  0.333333  0.333333      2.000000
  0.000000 -0.333333  0.333333      2.000000
  0.333333 -0.333333  0.333333      2.000000
 -0.333333 -0.333333  0.333333      2.000000
 
 Following cartesian coordinates:
            Coordinates               Weight
  0.000000  0.000000  0.000000      1.000000
  0.028757 -0.000005 -0.000001      2.000000
 -0.000005  0.028749  0.000001      2.000000
  0.028753  0.028744 -0.000000      2.000000
 -0.028762  0.028754  0.000002      2.000000
 -0.000001  0.000001  0.028768      2.000000
  0.028756 -0.000004  0.028767      2.000000
 -0.028759  0.000005  0.028769      2.000000
 -0.000006  0.028750  0.028769      2.000000
  0.028752  0.028745  0.028768      2.000000
 -0.028763  0.028754  0.028770      2.000000
  0.000003 -0.028748  0.028767      2.000000
  0.028761 -0.028753  0.028766      2.000000
 -0.028754 -0.028744  0.028769      2.000000
 


--------------------------------------------------------------------------------------------------------




 Dimension of arrays:
   k-points           NKPTS =     14   k-points in BZ     NKDIM =     14   number of bands    NBANDS=    540
   number of dos      NEDOS =   3001   number of ions     NIONS =    108
   non local maximal  LDIM  =      6   non local SUM 2l+1 LMDIM =     18
   total plane-waves  NPLWV = ******
   max r-space proj   IRMAX =   8910   max aug-charges    IRDMAX= 199630
   dimension x,y,z NGX =   100 NGY =  100 NGZ =  100
   dimension x,y,z NGXF=   200 NGYF=  200 NGZF=  200
   support grid    NGXF=   400 NGYF=  400 NGZF=  400
   ions per type =              27  27  54
   NGX,Y,Z   is equivalent  to a cutoff of  14.34, 14.34, 14.35 a.u.
   NGXF,Y,Z  is equivalent  to a cutoff of  28.68, 28.68, 28.70 a.u.

 SYSTEM =  LTO                                     
 POSCAR =  Ti27 O27 F54                            

 Startparameter for this run:
   NWRITE =      2    write-flag & timer
   PREC   = accura    normal or accurate (medium, high low for compatibility)
   ISTART =      0    job   : 0-new  1-cont  2-samecut
   ICHARG =      2    charge: 1-file 2-atom 10-const
   ISPIN  =      2    spin polarized calculation?
   LNONCOLLINEAR =      F non collinear calculations
   LSORBIT =      F    spin-orbit coupling
   INIWAV =      1    electr: 0-lowe 1-rand  2-diag
   LASPH  =      T    aspherical Exc in radial PAW
 Electronic Relaxation 1
   ENCUT  =  700.0 eV  51.45 Ry    7.17 a.u.  25.01 25.01 25.00*2*pi/ulx,y,z
   ENINI  =  700.0     initial cutoff
   ENAUG  =  613.6 eV  augmentation charge cutoff
   NELM   =     60;   NELMIN=  2; NELMDL=  0     # of ELM steps 
   EDIFF  = 0.1E-05   stopping-criterion for ELM
   LREAL  =      T    real-space projection
   NLSPLINE    = F    spline interpolate recip. space projectors
   LCOMPAT=      F    compatible to vasp.4.4
   GGA_COMPAT  = T    GGA compatible to vasp.4.4-vasp.4.6
   LMAXPAW     = -100 max onsite density
   LMAXMIX     =    4 max onsite mixed and CHGCAR
   VOSKOWN=      0    Vosko Wilk Nusair interpolation
   ROPT   =   -0.00010  -0.00010  -0.00010
 Ionic relaxation
   EDIFFG = -.1E-01   stopping-criterion for IOM
   NSW    =    100    number of steps for IOM
   NBLOCK =      1;   KBLOCK =    100    inner block; outer block 
   IBRION =      1    ionic relax: 0-MD 1-quasi-New 2-CG
   NFREE  =      0    steps in history (QN), initial steepest desc. (CG)
   ISIF   =      3    stress and relaxation
   IWAVPR =     11    prediction:  0-non 1-charg 2-wave 3-comb
   ISYM   =      0    0-nonsym 1-usesym 2-fastsym
   LCORR  =      T    Harris-Foulkes like correction to forces

   POTIM  = 0.5000    time-step for ionic-motion
   TEIN   =    0.0    initial temperature
   TEBEG  =    0.0;   TEEND  =   0.0 temperature during run
   SMASS  =  -3.00    Nose mass-parameter (am)
   estimated Nose-frequenzy (Omega)   =  0.10E-29 period in steps = 0.13E+47 mass=  -0.307E-26a.u.
   SCALEE = 1.0000    scale energy and forces
   NPACO  =    256;   APACO  = 10.0  distance and # of slots for P.C.
   PSTRESS=    0.0 pullay stress

  Mass of Ions in am
   POMASS =  47.88 16.00 19.00
  Ionic Valenz
   ZVAL   =  10.00  6.00  7.00
  Atomic Wigner-Seitz radii
   RWIGS  =  -1.00 -1.00 -1.00
  virtual crystal weights 
   VCA    =   1.00  1.00  1.00
   NELECT =     810.0000    total number of electrons
   NUPDOWN=      -1.0000    fix difference up-down

 DOS related values:
   EMIN   =  10.00;   EMAX   =-10.00  energy-range for DOS
   EFERMI =   0.00
   ISMEAR =     0;   SIGMA  =   0.01  broadening in eV -4-tet -1-fermi 0-gaus

 Electronic relaxation 2 (details)
   IALGO  =     38    algorithm
   LDIAG  =      T    sub-space diagonalisation (order eigenvalues)
   LSUBROT=      F    optimize rotation matrix (better conditioning)
   TURBO    =      0    0=normal 1=particle mesh
   IRESTART =      0    0=no restart 2=restart with 2 vectors
   NREBOOT  =      0    no. of reboots
   NMIN     =      0    reboot dimension
   EREF     =   0.00    reference energy to select bands
   IMIX   =      4    mixing-type and parameters
     AMIX     =   0.40;   BMIX     =  1.00
     AMIX_MAG =   1.60;   BMIX_MAG =  1.00
     AMIN     =   0.10
     WC   =   100.;   INIMIX=   1;  MIXPRE=   1;  MAXMIX= -45

 Intra band minimization:
   WEIMIN = 0.0010     energy-eigenvalue tresh-hold
   EBREAK =  0.46E-09  absolut break condition
   DEPER  =   0.30     relativ break condition  

   TIME   =   0.40     timestep for ELM

  volume/ion in A,a.u.               =      14.42        97.30
  Fermi-wavevector in a.u.,A,eV,Ry     =   1.316596  2.488006 23.584684  1.733425
  Thomas-Fermi vector in A             =   2.446697
 
 Write flags
   LWAVE        =      T    write WAVECAR
   LDOWNSAMPLE  =      F    k-point downsampling of WAVECAR
   LCHARG       =      T    write CHGCAR
   LVTOT        =      F    write LOCPOT, total local potential
   LVHAR        =      F    write LOCPOT, Hartree potential only
   LELF         =      F    write electronic localiz. function (ELF)
   LORBIT       =     11    0 simple, 1 ext, 2 COOP (PROOUT), +10 PAW based schemes


 Dipole corrections
   LMONO  =      F    monopole corrections only (constant potential shift)
   LDIPOL =      F    correct potential (dipole corrections)
   IDIPOL =      0    1-x, 2-y, 3-z, 4-all directions 
   EPSILON=  1.0000000 bulk dielectric constant

 LDA+U is selected, type is set to LDAUTYPE =  2
   angular momentum for each species LDAUL =     2   -1   -1
   U (eV)           for each species LDAUU =   4.2  0.0  0.0
   J (eV)           for each species LDAUJ =   0.0  0.0  0.0
 Exchange correlation treatment:
   GGA     =    PS    GGA type
   LEXCH   =    14    internal setting for exchange type
   LIBXC   =     F    Libxc                    
   VOSKOWN =     0    Vosko Wilk Nusair interpolation
   LHFCALC =     F    Hartree Fock is set to
   LHFONE  =     F    Hartree Fock one center treatment
   AEXX    =    0.0000 exact exchange contribution

 Linear response parameters
   LEPSILON=     F    determine dielectric tensor
   LRPA    =     F    only Hartree local field effects (RPA)
   LNABLA  =     F    use nabla operator in PAW spheres
   LVEL    =     F    velocity operator in full k-point grid
   CSHIFT  =0.1000    complex shift for real part using Kramers Kronig
   OMEGAMAX=  -1.0    maximum frequency
   DEG_THRESHOLD= 0.2000000E-02 threshold for treating states as degnerate
   RTIME   =   -0.100 relaxation time in fs
  (WPLASMAI=    0.000 imaginary part of plasma frequency in eV, 0.658/RTIME)
   DFIELD  = 0.0000000 0.0000000 0.0000000 field for delta impulse in time
 
  Optional k-point grid parameters
   LKPOINTS_OPT  =     F    use optional k-point grid
   KPOINTS_OPT_MODE=     1    mode for optional k-point grid
 
 Orbital magnetization related:
   ORBITALMAG=     F  switch on orbital magnetization
   LCHIMAG   =     F  perturbation theory with respect to B field
   DQ        =  0.001000  dq finite difference perturbation B field
   LLRAUG    =     F  two centre corrections for induced B field



--------------------------------------------------------------------------------------------------------


 quasi-Newton-method for relaxation of ions
 charge density and potential will be updated during run
 spin polarized calculation
 Variant of blocked Davidson
 Davidson routine will perform the subspace rotation
 perform sub-space diagonalisation
    after iterative eigenvector-optimisation
 modified Broyden-mixing scheme, WC =      100.0
 initial mixing is a Kerker type mixing with AMIX =  0.4000 and BMIX =      1.0000
 Hartree-type preconditioning will be used
 using additional bands          135
 real space projection scheme for non local part
 use partial core corrections
 calculate Harris-corrections to forces 
   (improved forces if not selfconsistent)
 use gradient corrections 
 use of overlap-Matrix (Vanderbilt PP)
 Gauss-broadening in eV      SIGMA  =   0.01


--------------------------------------------------------------------------------------------------------


  energy-cutoff  :      700.00
  volume of cell :     1557.23
      direct lattice vectors                 reciprocal lattice vectors
    11.591191662  0.001846019  0.000504317     0.086272409 -0.000013797 -0.000003704
     0.001854290 11.594606121 -0.000318050    -0.000013736  0.086247003  0.000002280
     0.000497361 -0.000306261 11.586912486    -0.000003755  0.000002368  0.086304268

  length of vectors
    11.591191819 11.594606274 11.586912501     0.086272410  0.086247004  0.086304268


 
 k-points in units of 2pi/SCALE and weight: Title                                   
   0.00000000  0.00000000  0.00000000       0.037
   0.02875747 -0.00000460 -0.00000123       0.074
  -0.00000458  0.02874900  0.00000076       0.074
   0.02875289  0.02874440 -0.00000047       0.074
  -0.02876205  0.02875360  0.00000199       0.074
  -0.00000125  0.00000079  0.02876809       0.074
   0.02875622 -0.00000381  0.02876685       0.074
  -0.02875872  0.00000539  0.02876932       0.074
  -0.00000583  0.02874979  0.02876885       0.074
   0.02875164  0.02874519  0.02876761       0.074
  -0.02876330  0.02875439  0.02877008       0.074
   0.00000333 -0.02874821  0.02876733       0.074
   0.02876080 -0.02875281  0.02876609       0.074
  -0.02875414 -0.02874361  0.02876856       0.074
 
 k-points in reciprocal lattice and weights: Title                                   
   0.00000000  0.00000000  0.00000000       0.037
   0.33333333 -0.00000000 -0.00000000       0.074
  -0.00000000  0.33333333 -0.00000000       0.074
   0.33333333  0.33333333 -0.00000000       0.074
  -0.33333333  0.33333333 -0.00000000       0.074
   0.00000000  0.00000000  0.33333333       0.074
   0.33333333 -0.00000000  0.33333333       0.074
  -0.33333333  0.00000000  0.33333333       0.074
  -0.00000000  0.33333333  0.33333333       0.074
   0.33333333  0.33333333  0.33333333       0.074
  -0.33333333  0.33333333  0.33333333       0.074
   0.00000000 -0.33333333  0.33333333       0.074
   0.33333333 -0.33333333  0.33333333       0.074
  -0.33333333 -0.33333333  0.33333333       0.074
 
 position of ions in fractional coordinates (direct lattice) 
   0.00951451  0.00151393  0.98739545
   0.98773346  0.00008799  0.33285980
   0.00978734  0.99225281  0.67594105
   0.00647511  0.34433581  0.99909456
   0.99079619  0.34366194  0.34005011
   0.00829612  0.33293154  0.65485810
   0.99130146  0.65987715  0.01102479
   0.01080872  0.65661559  0.32418570
   0.99061536  0.67802310  0.66713112
   0.32313704  0.99018057  0.99945191
   0.33227213  0.98816643  0.34383918
   0.32260708  0.99529107  0.65762571
   0.32122589  0.33268210  0.00023402
   0.33469023  0.33206422  0.34542491
   0.32244791  0.33305048  0.66036960
   0.33390042  0.67627343  0.01212078
   0.32097319  0.67497021  0.32572568
   0.33374487  0.67881615  0.66679632
   0.66718348  0.00097619  0.98851222
   0.67249523  0.01332656  0.33252578
   0.66709558  0.01077162  0.67311127
   0.66548259  0.34733473  0.99991867
   0.67788520  0.32464188  0.34168524
   0.66582804  0.32586869  0.65453370
   0.67745700  0.66236803  0.98973970
   0.66550621  0.66733987  0.33386271
   0.67658938  0.66813244  0.67949702
   0.99789593  0.49706747  0.00106264
   0.99657121  0.49912530  0.32883782
   0.00568133  0.83275550  0.66333940
   0.33396189  0.83412083  0.99840922
   0.33610661  0.83343646  0.33633003
   0.32982961  0.83066719  0.66664131
   0.65993445  0.16530504  0.33543407
   0.66796655  0.16610563  0.66434165
   0.66780148  0.49866334  0.00078768
   0.16749119  0.00748858  0.99532568
   0.16734417  0.01049907  0.67279395
   0.16897971  0.32887528  0.99539935
   0.16834825  0.32728405  0.67374593
   0.16714169  0.66606042  0.34132227
   0.83322700  0.00000870  0.33392239
   0.83241899  0.32871152  0.32953473
   0.83218809  0.67279460  0.99852524
   0.83234059  0.66668217  0.66847958
   0.98765748  0.00279887  0.83416620
   0.00367752  0.33217698  0.50085450
   0.00118650  0.67437088  0.16679354
   0.33347948  0.00822655  0.49933067
   0.33424291  0.32836639  0.49898560
   0.33233924  0.66210286  0.16606366
   0.67307111  0.99627435  0.83500427
   0.66355356  0.34133170  0.50061339
   0.65936789  0.67567631  0.83318613
   0.99104943  0.16692657  0.00553812
   0.00660349  0.16465694  0.32819817
   0.98616113  0.16668993  0.66597292
   0.00222835  0.49982617  0.67191604
   0.00570349  0.83408586  0.99604691
   0.99908456  0.83481776  0.34304366
   0.34241317  0.16787990  0.00154115
   0.33762686  0.16770402  0.32371873
   0.34687900  0.16810362  0.67469205
   0.33688019  0.49827529  0.99545977
   0.33617411  0.49765361  0.33496792
   0.33537240  0.49911984  0.66854110
   0.66801922  0.16670025  0.00235409
   0.66819162  0.50370806  0.32532178
   0.66273830  0.49993018  0.67345159
   0.65829359  0.83551114  0.00977747
   0.66133350  0.83061865  0.33500273
   0.66256423  0.83417469  0.65706030
   0.16446308  0.00040923  0.32862850
   0.16990923  0.33115186  0.32598977
   0.16791698  0.66297109  0.99226504
   0.16819605  0.65662966  0.66295222
   0.50176661  0.00521797  0.00218167
   0.50115642  0.99666836  0.32845256
   0.50128560  0.99695101  0.66858567
   0.49978921  0.33102570  0.00009337
   0.49976987  0.33918178  0.32708462
   0.49959282  0.33723611  0.67245173
   0.50121438  0.66457175  0.00383545
   0.50282962  0.66167857  0.33602153
   0.50050443  0.66461781  0.66023558
   0.83171301  0.99536422  0.01233462
   0.83178394  0.99448915  0.65344057
   0.83151288  0.32682050  0.00417785
   0.83268898  0.34108068  0.67089031
   0.82821610  0.67275530  0.33583946
   0.00056374  0.99382888  0.16697900
   0.00400315  0.00760399  0.49827049
   0.00407845  0.32531730  0.16562570
   0.99229546  0.32692219  0.83344481
   0.99469070  0.66198484  0.50009297
   0.00677578  0.66708927  0.83338504
   0.33485850  0.00477677  0.16679371
   0.34473861  0.00495539  0.83349640
   0.33569475  0.33738005  0.16598806
   0.34235911  0.33346343  0.83448737
   0.34003071  0.65724603  0.50104273
   0.33826207  0.66040349  0.83241234
   0.66409236  0.99812797  0.16582422
   0.65965552  0.99305750  0.49909049
   0.66097197  0.33217865  0.16595891
   0.66722462  0.33026407  0.83459365
   0.66373514  0.67072477  0.17038485
   0.66468928  0.66094162  0.49731826
 
 position of ions in cartesian coordinates  (Angst):
   0.11077835  0.01726857 11.44086895
  11.44917352  0.00274165  3.85731542
   0.11562307 11.50459158  7.83175918
   0.07618964  3.99214409 11.57631494
  11.48531492  3.98634975  3.94052123
   0.09710492  3.86002484  7.58768184
  11.49159425  7.65284223  0.12803330
   0.12666477  7.61311982  3.75610800
  11.48400157  7.86303522  7.73027388
   3.74787648 11.48104413 11.58040981
   3.85343328 11.45790867  3.98388778
   3.74157309 11.54040209  7.61969765
   3.72400787  3.85791087  0.00276777
   3.88024618  3.85066592  4.00247137
   3.73850157  3.86198209  7.65170144
   3.87156375  7.84173674  0.14039568
   3.72187539  7.82650646  3.77410217
   3.87009113  7.87101782  7.72606304
   7.73394505  0.01224739 11.45414071
   7.79521121  0.15565577  3.85328197
   7.73278751  0.12591805  7.79961434
   7.71487765  4.02813165 11.58619525
   7.85826923  3.76524149  3.95931564
   7.71867018  3.77934776  7.58425682
   7.85425445  7.68084394 11.46815829
   7.71541358  7.73866927  3.86856136
   7.84405410  7.74777337  7.87340118
  11.56772527  5.76514336  0.01265788
  11.55253700  5.78890027  3.81055886
   0.06772750  9.65527932  7.68579359
   3.87305952  9.67161326 11.56838344
   3.89758890  9.66388489  3.89693105
   3.82499007  9.63166357  7.72421664
   7.64990008  1.91776234  3.88692544
   7.74316675  1.92695893  7.69795259
   7.74154001  5.78303758  0.00930494
   1.94193137  0.08683148 11.53283366
   1.94007243  0.12183540  7.79568565
   1.95978114  3.81318639 11.53358580
   1.95229876  3.79483413  7.80661597
   1.93877614  7.72291228  3.95474376
   9.65825997  0.00153676  3.86954973
   9.64950143  3.81271633  3.81860530
   9.64779582  7.80201885 11.57003022
   9.64938801  7.73124897  7.74582208
  11.44854721  0.03401951  9.66590797
   0.04349188  3.85131461  5.80325343
   0.01508643  7.81901585  1.93240821
   3.86568820  0.09584633  5.78586635
   3.87513068  3.80774319  5.78176666
   3.85351817  7.67738448  1.92412208
   7.80395888 11.55239548  9.67514396
   7.69225841  3.95867819  5.80078967
   7.64452688  7.83516268  9.65417242
  11.48775621  1.93727563  0.06461643
   0.07701092  1.90904404  3.80275442
  11.43142300  1.93432055  7.71701421
   0.02709021  5.79508586  7.78527448
   0.06815230  9.67060244 11.54084600
  11.58229928  9.68112234  3.97505519
   3.96928878  1.94713296  0.01797650
   3.91396959  1.94498621  3.75101755
   4.02138828  1.94952902  7.81771918
   3.90626185  5.77762274 11.53431668
   3.89774799  5.77061559  3.88125527
   3.88862377  5.78751229  7.74633758
   7.74344912  1.93405617  0.02756054
   7.74623293  5.84143039  3.76965181
   7.68318867  5.79751069  7.80339988
   7.63196135  9.68863476  0.11335693
   7.66735019  9.63181433  3.88171668
   7.68178263  9.67294880  7.61336906
   1.90648733  0.00494778  3.80787251
   1.97022667  3.83978921  3.77719529
   1.94808078  7.68689480 11.49716203
   1.95113997  7.61346974  7.68144530
   5.81608372  0.06142591  0.02553015
   5.81101159 11.55680162  3.80568685
   5.81267861 11.55997485  7.74677940
   5.79376643  3.83903523  0.00122860
   5.79371992  3.93350153  3.79004507
   5.79183592  3.91083613  7.79178402
   5.81090621  7.70637179  0.04448245
   5.82978859  7.67272774  3.89349523
   5.80300357  7.70670348  7.65013295
   9.64239675 11.54238766  0.14302298
   9.64353608 11.53204537  7.57146185
   9.63883329  3.79088872  0.04872383
   9.65282364  3.95602778  7.77385879
   9.60142606  7.80175874  3.89154614
   0.00846029 11.52300430  1.93445525
   0.04666315  0.08802006  5.77341620
   0.04795968  3.77188280  1.91898910
  11.50290765  3.79211056  9.65744858
  11.53112676  7.67713656  5.79482460
   0.08019087  7.73439466  9.65615073
   3.88150087  0.05595181  1.93279144
   3.99635507  0.05783688  9.65782213
   3.89181039  3.91235770  1.92335106
   3.96938345  3.86675351  9.66919873
   3.94282900  7.62098307  5.80550071
   3.92249913  7.65748789  9.64504945
   7.69955509 11.57407577  1.92140821
   7.64828324 11.51517541  5.78293467
   7.66215132  3.85264989  1.92317900
   7.73495599  3.83025795  9.67059505
   7.69480974  7.77796260  1.97435576
   7.70601374  7.66443244  5.76250817
 


--------------------------------------------------------------------------------------------------------


 k-point   1 :   0.0000 0.0000 0.0000  plane waves:   65249
 k-point   2 :   0.3333-0.0000-0.0000  plane waves:   65446
 k-point   3 :  -0.0000 0.3333-0.0000  plane waves:   65452
 k-point   4 :   0.3333 0.3333-0.0000  plane waves:   65469
 k-point   5 :  -0.3333 0.3333-0.0000  plane waves:   65476
 k-point   6 :   0.0000 0.0000 0.3333  plane waves:   65431
 k-point   7 :   0.3333-0.0000 0.3333  plane waves:   65478
 k-point   8 :  -0.3333 0.0000 0.3333  plane waves:   65481
 k-point   9 :  -0.0000 0.3333 0.3333  plane waves:   65474
 k-point  10 :   0.3333 0.3333 0.3333  plane waves:   65533
 k-point  11 :  -0.3333 0.3333 0.3333  plane waves:   65532
 k-point  12 :   0.0000-0.3333 0.3333  plane waves:   65475
 k-point  13 :   0.3333-0.3333 0.3333  plane waves:   65534
 k-point  14 :  -0.3333-0.3333 0.3333  plane waves:   65534

 maximum and minimum number of plane-waves per node :      8219     8136

 maximum number of plane-waves:     65534
 maximum index in each direction: 
   IXMAX=   25   IYMAX=   25   IZMAX=   24
   IXMIN=  -25   IYMIN=  -25   IZMIN=  -25


 real space projection operators:
  total allocation   :      54059.50 KBytes
  max/ min on nodes  :       7371.31       6169.61


 parallel 3D FFT for wavefunctions:
    minimum data exchange during FFTs selected (reduces bandwidth)
 parallel 3D FFT for charge:
    minimum data exchange during FFTs selected (reduces bandwidth)


 total amount of memory used by VASP MPI-rank0   297910. kBytes
=======================================================================

   base      :      30000. kBytes
   nonlr-proj:      25269. kBytes
   fftplans  :      18873. kBytes
   grid      :      21088. kBytes
   one-center:        435. kBytes
   wavefun   :     202245. kBytes
 
     INWAV:  cpu time      0.0000: real time      0.0000
 Broyden mixing: mesh for mixing (old mesh)
   NGX = 51   NGY = 51   NGZ = 49
  (NGX  =200   NGY  =200   NGZ  =200)
  gives a total of 127449 points

 initial charge density was supplied:
 charge density of overlapping atoms calculated
 number of electron     810.0000000 magnetization     108.0000000
 keeping initial charge density in first step


--------------------------------------------------------------------------------------------------------


 Maximum index for non-local projection operator         1369
 Maximum index for augmentation-charges         4024 (set IRDMAX)


--------------------------------------------------------------------------------------------------------


 First call to EWALD:  gamma=   0.153
 Maximum number of real-space cells 3x 3x 3
 Maximum number of reciprocal cells 3x 3x 3

    FEWALD:  cpu time      0.0105: real time      0.0105


--------------------------------------- Iteration      1(   1)  ---------------------------------------


    POTLOK:  cpu time      0.1609: real time      0.1630
    SETDIJ:  cpu time      0.8915: real time      0.8939
     EDDAV:  cpu time     89.4811: real time     89.7075
       DOS:  cpu time      0.0064: real time      0.0066
    --------------------------------------------
      LOOP:  cpu time     90.5399: real time     90.7710

 eigenvalue-minimisations  : 30240
 total energy-change (2. order) : 0.1320052E+05  (-0.4639347E+05)
 number of electron     810.0000000 magnetization     108.0000000
 augmentation part      810.0000000 magnetization     108.0000000

 Free energy of the ion-electron system (eV)
  ---------------------------------------------------
  alpha Z        PSCENC =      2561.35547998
  Ewald energy   TEWEN  =    -43272.77755213
  -Hartree energ DENC   =    -27736.87040487
  -exchange      EXHF   =         0.00000000
  -V(xc)+E(xc)   XCENC  =      3762.43153470
  PAW double counting   =     55010.87535266   -55252.78449702
  entropy T*S    EENTRO =        -0.00188540
  eigenvalues    EBANDS =      2857.84790296
  atomic energy  EATOM  =     75270.44210491
  Solvation  Ediel_sol  =         0.00000000
  ---------------------------------------------------
  free energy    TOTEN  =     13200.51803578 eV

  energy without entropy =    13200.51992118  energy(sigma->0) =    13200.51897848


--------------------------------------------------------------------------------------------------------




--------------------------------------- Iteration      1(   2)  ---------------------------------------


     EDDAV:  cpu time     90.4482: real time     90.7552
       DOS:  cpu time      0.0106: real time      0.0106
    --------------------------------------------
      LOOP:  cpu time     90.4587: real time     90.7658

 eigenvalue-minimisations  : 30290
 total energy-change (2. order) :-0.1155271E+05  (-0.1081061E+05)
 number of electron     810.0000000 magnetization     108.0000000
 augmentation part      810.0000000 magnetization     108.0000000

 Free energy of the ion-electron system (eV)
  ---------------------------------------------------
  alpha Z        PSCENC =      2561.35547998
  Ewald energy   TEWEN  =    -43272.77755213
  -Hartree energ DENC   =    -27736.87040487
  -exchange      EXHF   =         0.00000000
  -V(xc)+E(xc)   XCENC  =      3762.43153470
  PAW double counting   =     55010.87535266   -55252.78449702
  entropy T*S    EENTRO =        -0.00160491
  eigenvalues    EBANDS =     -8694.85961082
  atomic energy  EATOM  =     75270.44210491
  Solvation  Ediel_sol  =         0.00000000
  ---------------------------------------------------
  free energy    TOTEN  =      1647.81080248 eV

  energy without entropy =     1647.81240740  energy(sigma->0) =     1647.81160494


--------------------------------------------------------------------------------------------------------




--------------------------------------- Iteration      1(   3)  ---------------------------------------


     EDDAV:  cpu time     95.5356: real time     95.9387
       DOS:  cpu time      0.0031: real time      0.0030
    --------------------------------------------
      LOOP:  cpu time     95.5387: real time     95.9417

 eigenvalue-minimisations  : 32400
 total energy-change (2. order) :-0.2417312E+04  (-0.2269356E+04)
 number of electron     810.0000000 magnetization     108.0000000
 augmentation part      810.0000000 magnetization     108.0000000

 Free energy of the ion-electron system (eV)
  ---------------------------------------------------
  alpha Z        PSCENC =      2561.35547998
  Ewald energy   TEWEN  =    -43272.77755213
  -Hartree energ DENC   =    -27736.87040487
  -exchange      EXHF   =         0.00000000
  -V(xc)+E(xc)   XCENC  =      3762.43153470
  PAW double counting   =     55010.87535266   -55252.78449702
  entropy T*S    EENTRO =        -0.00000000
  eigenvalues    EBANDS =    -11112.17312799
  atomic energy  EATOM  =     75270.44210491
  Solvation  Ediel_sol  =         0.00000000
  ---------------------------------------------------
  free energy    TOTEN  =      -769.50110977 eV

  energy without entropy =     -769.50110977  energy(sigma->0) =     -769.50110977


--------------------------------------------------------------------------------------------------------




--------------------------------------- Iteration      1(   4)  ---------------------------------------


     EDDAV:  cpu time    106.1130: real time    106.3882
       DOS:  cpu time      0.0084: real time      0.0084
    --------------------------------------------
      LOOP:  cpu time    106.1214: real time    106.3966

 eigenvalue-minimisations  : 37360
 total energy-change (2. order) :-0.1539741E+03  (-0.1522792E+03)
 number of electron     810.0000000 magnetization     108.0000000
 augmentation part      810.0000000 magnetization     108.0000000

 Free energy of the ion-electron system (eV)
  ---------------------------------------------------
  alpha Z        PSCENC =      2561.35547998
  Ewald energy   TEWEN  =    -43272.77755213
  -Hartree energ DENC   =    -27736.87040487
  -exchange      EXHF   =         0.00000000
  -V(xc)+E(xc)   XCENC  =      3762.43153470
  PAW double counting   =     55010.87535266   -55252.78449702
  entropy T*S    EENTRO =        -0.00000000
  eigenvalues    EBANDS =    -11266.14725368
  atomic energy  EATOM  =     75270.44210491
  Solvation  Ediel_sol  =         0.00000000
  ---------------------------------------------------
  free energy    TOTEN  =      -923.47523547 eV

  energy without entropy =     -923.47523547  energy(sigma->0) =     -923.47523547


--------------------------------------------------------------------------------------------------------




--------------------------------------- Iteration      1(   5)  ---------------------------------------


     EDDAV:  cpu time    108.2040: real time    108.4976
       DOS:  cpu time      0.0038: real time      0.0038
    CHARGE:  cpu time      3.9469: real time      3.9568
    MIXING:  cpu time      0.0051: real time      0.0054
    --------------------------------------------
      LOOP:  cpu time    112.1599: real time    112.4636

 eigenvalue-minimisations  : 38280
 total energy-change (2. order) :-0.4941680E+01  (-0.4920230E+01)
 number of electron     810.0000010 magnetization      68.7743017
 augmentation part      205.6084416 magnetization      70.5193999

 Broyden mixing:
  rms(total) = 0.10946E+02    rms(broyden)= 0.10946E+02
  rms(prec ) = 0.13039E+02
  weight for this iteration     100.00

 Free energy of the ion-electron system (eV)
  ---------------------------------------------------
  alpha Z        PSCENC =      2561.35547998
  Ewald energy   TEWEN  =    -43272.77755213
  -Hartree energ DENC   =    -27736.87040487
  -exchange      EXHF   =         0.00000000
  -V(xc)+E(xc)   XCENC  =      3762.43153470
  PAW double counting   =     55010.87535266   -55252.78449702
  entropy T*S    EENTRO =        -0.00000000
  eigenvalues    EBANDS =    -11271.08893340
  atomic energy  EATOM  =     75270.44210491
  Solvation  Ediel_sol  =         0.00000000
  ---------------------------------------------------
  free energy    TOTEN  =      -928.41691519 eV

  energy without entropy =     -928.41691519  energy(sigma->0) =     -928.41691519


--------------------------------------------------------------------------------------------------------




--------------------------------------- Iteration      1(   6)  ---------------------------------------


    POTLOK:  cpu time      0.1663: real time      0.1713
    SETDIJ:  cpu time      0.9063: real time      0.9085
     EDDAV:  cpu time    112.2168: real time    112.5007
       DOS:  cpu time      0.0088: real time      0.0088
    CHARGE:  cpu time      4.0220: real time      4.0319
    MIXING:  cpu time      0.0049: real time      0.0049
    --------------------------------------------
      LOOP:  cpu time    117.3251: real time    117.6262

 eigenvalue-minimisations  : 40090
 total energy-change (2. order) : 0.4221785E+03  (-0.1148386E+03)
 number of electron     810.0000010 magnetization      47.0854086
 augmentation part      211.7353935 magnetization      41.6571324

 Broyden mixing:
  rms(total) = 0.32794E+01    rms(broyden)= 0.32788E+01
  rms(prec ) = 0.35807E+01
  weight for this iteration     100.00

 eigenvalues of (default mixing * dielectric matrix)
  average eigenvalue GAMMA=   0.8697
  0.8697

 Free energy of the ion-electron system (eV)
  ---------------------------------------------------
  alpha Z        PSCENC =      2561.35547998
  Ewald energy   TEWEN  =    -43272.77755213
  -Hartree energ DENC   =    -28143.13089207
  -exchange      EXHF   =         0.00000000
  -V(xc)+E(xc)   XCENC  =      3909.32724328
  PAW double counting   =     57654.76816029   -58027.74112053
  entropy T*S    EENTRO =        -0.00000000
  eigenvalues    EBANDS =    -10458.48180414
  atomic energy  EATOM  =     75270.44210491
  Solvation  Ediel_sol  =         0.00000000
  ---------------------------------------------------
  free energy    TOTEN  =      -506.23838042 eV

  energy without entropy =     -506.23838042  energy(sigma->0) =     -506.23838042


--------------------------------------------------------------------------------------------------------




--------------------------------------- Iteration      1(   7)  ---------------------------------------


    POTLOK:  cpu time      0.1706: real time      0.2728
    SETDIJ:  cpu time      0.8997: real time      0.9020
     EDDAV:  cpu time    108.6499: real time    108.9241
       DOS:  cpu time      0.0093: real time      0.0093
    CHARGE:  cpu time      3.9020: real time      3.9116
    MIXING:  cpu time      0.0041: real time      0.0041
    --------------------------------------------
      LOOP:  cpu time    113.6355: real time    114.0238

 eigenvalue-minimisations  : 38440
 total energy-change (2. order) :-0.9512035E+02  (-0.1930993E+02)
 number of electron     810.0000010 magnetization      26.6162151
 augmentation part      207.5138277 magnetization      22.6823562

 Broyden mixing:
  rms(total) = 0.19126E+01    rms(broyden)= 0.19126E+01
  rms(prec ) = 0.21284E+01
  weight for this iteration     100.00

 eigenvalues of (default mixing * dielectric matrix)
  average eigenvalue GAMMA=   0.9750
  1.0948  0.8552

 Free energy of the ion-electron system (eV)
  ---------------------------------------------------
  alpha Z        PSCENC =      2561.35547998
  Ewald energy   TEWEN  =    -43272.77755213
  -Hartree energ DENC   =    -28170.64580287
  -exchange      EXHF   =         0.00000000
  -V(xc)+E(xc)   XCENC  =      3859.92990284
  PAW double counting   =     59241.43305768   -59626.70156328
  entropy T*S    EENTRO =        -0.00000000
  eigenvalues    EBANDS =    -10464.39435734
  atomic energy  EATOM  =     75270.44210491
  Solvation  Ediel_sol  =         0.00000000
  ---------------------------------------------------
  free energy    TOTEN  =      -601.35873022 eV

  energy without entropy =     -601.35873022  energy(sigma->0) =     -601.35873022


--------------------------------------------------------------------------------------------------------




--------------------------------------- Iteration      1(   8)  ---------------------------------------


    POTLOK:  cpu time      0.1616: real time      0.2831
    SETDIJ:  cpu time      0.8867: real time      0.8890
     EDDAV:  cpu time    101.2208: real time    101.4783
       DOS:  cpu time      0.0116: real time      0.0116
    CHARGE:  cpu time      4.1209: real time      4.1312
    MIXING:  cpu time      0.0056: real time      0.0056
    --------------------------------------------
      LOOP:  cpu time    106.4073: real time    106.7988

 eigenvalue-minimisations  : 35100
 total energy-change (2. order) :-0.5520148E+02  (-0.4256714E+01)
 number of electron     810.0000010 magnetization       9.9090934
 augmentation part      209.5933817 magnetization       7.1302890

 Broyden mixing:
  rms(total) = 0.12378E+01    rms(broyden)= 0.12378E+01
  rms(prec ) = 0.13290E+01
  weight for this iteration     100.00

 eigenvalues of (default mixing * dielectric matrix)
  average eigenvalue GAMMA=   1.1745
  1.4176  1.4176  0.6882

 Free energy of the ion-electron system (eV)
  ---------------------------------------------------
  alpha Z        PSCENC =      2561.35547998
  Ewald energy   TEWEN  =    -43272.77755213
  -Hartree energ DENC   =    -28015.06300920
  -exchange      EXHF   =         0.00000000
  -V(xc)+E(xc)   XCENC  =      3823.71570925
  PAW double counting   =     60263.15869207   -60666.81400809
  entropy T*S    EENTRO =        -0.00000000
  eigenvalues    EBANDS =    -10620.57762932
  atomic energy  EATOM  =     75270.44210491
  Solvation  Ediel_sol  =         0.00000000
  ---------------------------------------------------
  free energy    TOTEN  =      -656.56021254 eV

  energy without entropy =     -656.56021254  energy(sigma->0) =     -656.56021254


--------------------------------------------------------------------------------------------------------




--------------------------------------- Iteration      1(   9)  ---------------------------------------


    POTLOK:  cpu time      0.1696: real time      0.3551
    SETDIJ:  cpu time      0.9076: real time      0.9099
     EDDAV:  cpu time    101.1458: real time    101.4011
       DOS:  cpu time      0.0088: real time      0.0088
    CHARGE:  cpu time      3.9617: real time      3.9719
    MIXING:  cpu time      0.0049: real time      0.0049
    --------------------------------------------
      LOOP:  cpu time    106.1984: real time    106.6516

 eigenvalue-minimisations  : 35150
 total energy-change (2. order) :-0.5384592E+02  (-0.7891874E+01)
 number of electron     810.0000010 magnetization       4.6545148
 augmentation part      208.6531637 magnetization       3.7054761

 Broyden mixing:
  rms(total) = 0.49831E+00    rms(broyden)= 0.49820E+00
  rms(prec ) = 0.60701E+00
  weight for this iteration     100.00

 eigenvalues of (default mixing * dielectric matrix)
  average eigenvalue GAMMA=   1.1634
  1.8594  1.4440  0.7586  0.5916

 Free energy of the ion-electron system (eV)
  ---------------------------------------------------
  alpha Z        PSCENC =      2561.35547998
  Ewald energy   TEWEN  =    -43272.77755213
  -Hartree energ DENC   =    -27870.77423079
  -exchange      EXHF   =         0.00000000
  -V(xc)+E(xc)   XCENC  =      3788.37264152
  PAW double counting   =     60922.87879582   -61332.11566810
  entropy T*S    EENTRO =        -0.00000000
  eigenvalues    EBANDS =    -10777.78770517
  atomic energy  EATOM  =     75270.44210491
  Solvation  Ediel_sol  =         0.00000000
  ---------------------------------------------------
  free energy    TOTEN  =      -710.40613397 eV

  energy without entropy =     -710.40613397  energy(sigma->0) =     -710.40613397


--------------------------------------------------------------------------------------------------------




--------------------------------------- Iteration      1(  10)  ---------------------------------------


    POTLOK:  cpu time      0.1558: real time      0.1801
    SETDIJ:  cpu time      0.8924: real time      0.8945
     EDDAV:  cpu time    105.7514: real time    106.0191
       DOS:  cpu time      0.0086: real time      0.0086
    CHARGE:  cpu time      4.0301: real time      4.0400
    MIXING:  cpu time      0.0058: real time      0.0058
    --------------------------------------------
      LOOP:  cpu time    110.8441: real time    111.1482

 eigenvalue-minimisations  : 37260
 total energy-change (2. order) :-0.8531083E+01  (-0.1343029E+01)
 number of electron     810.0000010 magnetization       2.0215862
 augmentation part      209.1094162 magnetization       1.6873302

 Broyden mixing:
  rms(total) = 0.19617E+00    rms(broyden)= 0.19611E+00
  rms(prec ) = 0.22200E+00
  weight for this iteration     100.00

 eigenvalues of (default mixing * dielectric matrix)
  average eigenvalue GAMMA=   1.2171
  2.1646  1.6049  0.9557  0.7686  0.5919

 Free energy of the ion-electron system (eV)
  ---------------------------------------------------
  alpha Z        PSCENC =      2561.35547998
  Ewald energy   TEWEN  =    -43272.77755213
  -Hartree energ DENC   =    -27830.97781032
  -exchange      EXHF   =         0.00000000
  -V(xc)+E(xc)   XCENC  =      3783.60440825
  PAW double counting   =     61033.82192202   -61448.11527708
  entropy T*S    EENTRO =        -0.00000000
  eigenvalues    EBANDS =    -10816.29049281
  atomic energy  EATOM  =     75270.44210491
  Solvation  Ediel_sol  =         0.00000000
  ---------------------------------------------------
  free energy    TOTEN  =      -718.93721719 eV

  energy without entropy =     -718.93721719  energy(sigma->0) =     -718.93721719


--------------------------------------------------------------------------------------------------------




--------------------------------------- Iteration      1(  11)  ---------------------------------------


    POTLOK:  cpu time      0.1821: real time      0.2861
    SETDIJ:  cpu time      0.9029: real time      0.9051
     EDDAV:  cpu time    102.3788: real time    102.6373
       DOS:  cpu time      0.0069: real time      0.0070
    CHARGE:  cpu time      3.9249: real time      3.9477
    MIXING:  cpu time      0.0174: real time      0.0409
    --------------------------------------------
      LOOP:  cpu time    107.4131: real time    107.8243

 eigenvalue-minimisations  : 35670
 total energy-change (2. order) :-0.2159952E+01  (-0.3651437E+00)
 number of electron     810.0000010 magnetization       0.5088471
 augmentation part      209.0854088 magnetization       0.3906470

 Broyden mixing:
  rms(total) = 0.98503E-01    rms(broyden)= 0.98476E-01
  rms(prec ) = 0.12022E+00
  weight for this iteration     100.00

 eigenvalues of (default mixing * dielectric matrix)
  average eigenvalue GAMMA=   1.2471
  2.5636  1.3982  1.3982  0.8003  0.7202  0.6019

 Free energy of the ion-electron system (eV)
  ---------------------------------------------------
  alpha Z        PSCENC =      2561.35547998
  Ewald energy   TEWEN  =    -43272.77755213
  -Hartree energ DENC   =    -27795.17335845
  -exchange      EXHF   =         0.00000000
  -V(xc)+E(xc)   XCENC  =      3781.31687951
  PAW double counting   =     60977.42341481   -61393.32153935
  entropy T*S    EENTRO =        -0.00000000
  eigenvalues    EBANDS =    -10850.36259838
  atomic energy  EATOM  =     75270.44210491
  Solvation  Ediel_sol  =         0.00000000
  ---------------------------------------------------
  free energy    TOTEN  =      -721.09716911 eV

  energy without entropy =     -721.09716911  energy(sigma->0) =     -721.09716911


--------------------------------------------------------------------------------------------------------




--------------------------------------- Iteration      1(  12)  ---------------------------------------


    POTLOK:  cpu time      0.1564: real time      0.1823
    SETDIJ:  cpu time      0.8893: real time      0.8920
     EDDAV:  cpu time     97.5295: real time     97.8614
       DOS:  cpu time      0.0045: real time      0.0055
    CHARGE:  cpu time      3.8912: real time      3.9072
    MIXING:  cpu time      0.0047: real time      0.0082
    --------------------------------------------
      LOOP:  cpu time    102.4756: real time    102.8564

 eigenvalue-minimisations  : 33530
 total energy-change (2. order) :-0.2302710E-01  (-0.2574337E-01)
 number of electron     810.0000010 magnetization       0.2692472
 augmentation part      209.1500081 magnetization       0.2313141

 Broyden mixing:
  rms(total) = 0.46169E-01    rms(broyden)= 0.46161E-01
  rms(prec ) = 0.56890E-01
  weight for this iteration     100.00

 eigenvalues of (default mixing * dielectric matrix)
  average eigenvalue GAMMA=   1.2172
  2.5451  1.5171  1.5171  0.8196  0.8196  0.5709  0.7308

 Free energy of the ion-electron system (eV)
  ---------------------------------------------------
  alpha Z        PSCENC =      2561.35547998
  Ewald energy   TEWEN  =    -43272.77755213
  -Hartree energ DENC   =    -27765.40883777
  -exchange      EXHF   =         0.00000000
  -V(xc)+E(xc)   XCENC  =      3780.18243903
  PAW double counting   =     60900.87050959   -61317.31138071
  entropy T*S    EENTRO =        -0.00000000
  eigenvalues    EBANDS =    -10878.47295911
  atomic energy  EATOM  =     75270.44210491
  Solvation  Ediel_sol  =         0.00000000
  ---------------------------------------------------
  free energy    TOTEN  =      -721.12019622 eV

  energy without entropy =     -721.12019622  energy(sigma->0) =     -721.12019622


--------------------------------------------------------------------------------------------------------




--------------------------------------- Iteration      1(  13)  ---------------------------------------


    POTLOK:  cpu time      0.1657: real time      0.2829
    SETDIJ:  cpu time      0.8863: real time      0.8891
     EDDAV:  cpu time     98.0814: real time     98.3298
       DOS:  cpu time      0.0127: real time      0.0128
    CHARGE:  cpu time      3.8805: real time      3.8899
    MIXING:  cpu time      0.0054: real time      0.0054
    --------------------------------------------
      LOOP:  cpu time    103.0322: real time    103.4100

 eigenvalue-minimisations  : 33770
 total energy-change (2. order) : 0.6849470E-04  (-0.5664669E-02)
 number of electron     810.0000010 magnetization       0.0253811
 augmentation part      209.1338036 magnetization       0.0064879

 Broyden mixing:
  rms(total) = 0.24245E-01    rms(broyden)= 0.24244E-01
  rms(prec ) = 0.29671E-01
  weight for this iteration     100.00

 eigenvalues of (default mixing * dielectric matrix)
  average eigenvalue GAMMA=   1.2716
  2.6219  2.4113  1.0921  1.0921  0.8635  0.8635  0.5790  0.6489

 Free energy of the ion-electron system (eV)
  ---------------------------------------------------
  alpha Z        PSCENC =      2561.35547998
  Ewald energy   TEWEN  =    -43272.77755213
  -Hartree energ DENC   =    -27756.74603488
  -exchange      EXHF   =         0.00000000
  -V(xc)+E(xc)   XCENC  =      3779.87212234
  PAW double counting   =     60871.74905573   -61287.81207836
  entropy T*S    EENTRO =        -0.00000000
  eigenvalues    EBANDS =    -10887.20322530
  atomic energy  EATOM  =     75270.44210491
  Solvation  Ediel_sol  =         0.00000000
  ---------------------------------------------------
  free energy    TOTEN  =      -721.12012772 eV

  energy without entropy =     -721.12012772  energy(sigma->0) =     -721.12012772


--------------------------------------------------------------------------------------------------------




--------------------------------------- Iteration      1(  14)  ---------------------------------------


    POTLOK:  cpu time      0.1979: real time      0.2903
    SETDIJ:  cpu time      0.8826: real time      0.8848
     EDDAV:  cpu time     97.1583: real time     97.4130
       DOS:  cpu time      0.0082: real time      0.0083
    CHARGE:  cpu time      3.9058: real time      3.9156
    MIXING:  cpu time      0.0060: real time      0.0060
    --------------------------------------------
      LOOP:  cpu time    102.1588: real time    102.5181

 eigenvalue-minimisations  : 33300
 total energy-change (2. order) : 0.6568248E-02  (-0.1485572E-02)
 number of electron     810.0000010 magnetization       0.0017923
 augmentation part      209.1359608 magnetization      -0.0031693

 Broyden mixing:
  rms(total) = 0.74968E-02    rms(broyden)= 0.74949E-02
  rms(prec ) = 0.94797E-02
  weight for this iteration     100.00

[...]
      3.73850      3.86198      7.65170         0.001569     -0.001533     -0.000038
      3.87156      7.84174      0.14040         0.000279     -0.000107      0.001307
      3.72188      7.82651      3.77410        -0.001430     -0.001266      0.001736
      3.87009      7.87102      7.72606        -0.000280     -0.001971      0.000718
      7.73395      0.01225     11.45414         0.000130     -0.001682      0.000255
      7.79521      0.15566      3.85328        -0.001854      0.000365     -0.000282
      7.73279      0.12592      7.79961         0.001084      0.000417     -0.001069
      7.71488      4.02813     11.58620         0.002334      0.003009      0.000725
      7.85827      3.76524      3.95932        -0.000657      0.000660      0.001616
      7.71867      3.77935      7.58426         0.001621      0.000887     -0.000108
      7.85425      7.68084     11.46816         0.000108      0.001914      0.002501
      7.71541      7.73867      3.86856        -0.000552      0.000626      0.000258
      7.84405      7.74777      7.87340        -0.000576      0.001042      0.003974
     11.56773      5.76514      0.01266        -0.002172     -0.001877      0.001685
     11.55254      5.78890      3.81056        -0.002174     -0.001446     -0.004956
      0.06773      9.65528      7.68579         0.003847     -0.000395     -0.002574
      3.87306      9.67161     11.56838        -0.002307      0.001193     -0.000704
      3.89759      9.66388      3.89693        -0.000143     -0.000598      0.004967
      3.82499      9.63166      7.72422        -0.001628      0.000567     -0.000769
      7.64990      1.91776      3.88693        -0.006048      0.001337      0.001827
      7.74317      1.92696      7.69795         0.000441     -0.000265     -0.005202
      7.74154      5.78304      0.00930         0.002961     -0.002544     -0.001423
      1.94193      0.08683     11.53283         0.000572      0.004006     -0.004868
      1.94007      0.12184      7.79569         0.001776      0.004603      0.002156
      1.95978      3.81319     11.53359         0.002280     -0.001937     -0.002931
      1.95230      3.79483      7.80662         0.002113     -0.002986      0.003272
      1.93878      7.72291      3.95474        -0.001465     -0.001620      0.007109
      9.65826      0.00154      3.86955        -0.001144      0.003353     -0.001214
      9.64950      3.81272      3.81861         0.000866     -0.005354     -0.000723
      9.64780      7.80202     11.57003         0.001780      0.006145     -0.001145
      9.64939      7.73125      7.74582        -0.001693      0.001045      0.004804
     11.44855      0.03402      9.66591        -0.005112      0.000595     -0.001989
      0.04349      3.85131      5.80325         0.002811      0.001240     -0.001051
      0.01509      7.81902      1.93241         0.003559      0.004779      0.000231
      3.86569      0.09585      5.78587        -0.001624      0.005297      0.000611
      3.87513      3.80774      5.78177         0.000470     -0.002191      0.000265
      3.85352      7.67738      1.92412        -0.004995     -0.000568      0.002396
      7.80396     11.55240      9.67514         0.001368     -0.000384     -0.001382
      7.69226      3.95868      5.80079        -0.000210      0.007155     -0.000280
      7.64453      7.83516      9.65417        -0.004100      0.008848     -0.000685
     11.48776      1.93728      0.06462        -0.003856     -0.001061     -0.000100
      0.07701      1.90904      3.80275         0.002642     -0.000539     -0.002709
     11.43142      1.93432      7.71701        -0.004698     -0.000177     -0.003380
      0.02709      5.79509      7.78527         0.000862     -0.000882      0.002669
      0.06815      9.67060     11.54085         0.004476     -0.000158     -0.003577
     11.58230      9.68112      3.97506        -0.001648     -0.000178      0.004473
      3.96929      1.94713      0.01798         0.001718      0.000031      0.001115
      3.91397      1.94499      3.75102         0.003042     -0.000614     -0.001654
      4.02139      1.94953      7.81772         0.005227     -0.000790      0.002839
      3.90626      5.77762     11.53432         0.001902     -0.000711      0.000963
      3.89775      5.77062      3.88126        -0.003191     -0.000942      0.001346
      3.88862      5.78751      7.74634         0.000687     -0.001756      0.003240
      7.74345      1.93406      0.02756        -0.000135      0.000353      0.000585
      7.74623      5.84143      3.76965         0.006652      0.000387     -0.004597
      7.68319      5.79751      7.80340         0.000931      0.001605      0.006132
      7.63196      9.68863      0.11336        -0.004331      0.001303      0.002424
      7.66735      9.63181      3.88172        -0.004226      0.000699      0.002388
      7.68178      9.67295      7.61337        -0.002552     -0.000185     -0.004307
      1.90649      0.00495      3.80787        -0.000218     -0.004464     -0.003413
      1.97023      3.83979      3.77720         0.000343      0.000271     -0.001485
      1.94808      7.68689     11.49716         0.000651     -0.004333     -0.001483
      1.95114      7.61347      7.68145         0.000597     -0.001476     -0.003909
      5.81608      0.06143      0.02553        -0.000520      0.000815      0.000412
      5.81101     11.55680      3.80569        -0.002105     -0.000932     -0.003382
      5.81268     11.55997      7.74678        -0.000311      0.000186     -0.002119
      5.79377      3.83904      0.00123         0.001442      0.000698      0.000834
      5.79372      3.93350      3.79005        -0.000163      0.002932     -0.000939
      5.79184      3.91084      7.79178         0.001176      0.003635      0.001650
      5.81091      7.70637      0.04448        -0.000516     -0.001004      0.004482
      5.82979      7.67273      3.89350        -0.001012     -0.003555      0.001061
      5.80300      7.70670      7.65013         0.000081      0.000575      0.000335
      9.64240     11.54239      0.14302        -0.000223     -0.002093      0.000742
      9.64354     11.53205      7.57146        -0.000396     -0.003175     -0.005560
      9.63883      3.79089      0.04872         0.000913     -0.000128      0.002924
      9.65282      3.95603      7.77386         0.000967      0.003689     -0.000675
      9.60143      7.80176      3.89155         0.000196      0.005666      0.000793
      0.00846     11.52300      1.93446        -0.000653     -0.004164     -0.001770
      0.04666      0.08802      5.77342         0.000502      0.002527     -0.001348
      0.04796      3.77188      1.91899         0.001363     -0.001989     -0.000440
     11.50291      3.79211      9.65745        -0.002204     -0.002842      0.000414
     11.53113      7.67714      5.79482        -0.004249     -0.005492      0.000503
      0.08019      7.73439      9.65615         0.002546      0.001701     -0.000090
      3.88150      0.05595      1.93279        -0.002186     -0.002555     -0.000475
      3.99636      0.05784      9.65782         0.003944      0.001316     -0.000779
      3.89181      3.91236      1.92335        -0.000446      0.001387     -0.000429
      3.96938      3.86675      9.66920         0.003350     -0.001369      0.000463
      3.94283      7.62098      5.80550         0.002941     -0.004398      0.001300
      3.92250      7.65749      9.64505         0.005094      0.000257      0.000339
      7.69956     11.57408      1.92141        -0.001358      0.001306      0.000018
      7.64828     11.51518      5.78293        -0.003470     -0.000608     -0.001095
      7.66215      3.85265      1.92318        -0.000695      0.001829      0.000544
      7.73496      3.83026      9.67060         0.000423     -0.001339      0.001005
      7.69481      7.77796      1.97436         0.000064      0.003937      0.000879
      7.70601      7.66443      5.76251         0.000878     -0.004885      0.001857
 -----------------------------------------------------------------------------------
    total drift:                                0.004428     -0.003970      0.002526


--------------------------------------------------------------------------------------------------------



  FREE ENERGIE OF THE ION-ELECTRON SYSTEM (eV)
  ---------------------------------------------------
  free  energy   TOTEN  =      -721.11406382 eV

  energy  without entropy=     -721.11406382  energy(sigma->0) =     -721.11406382
 


--------------------------------------------------------------------------------------------------------


    POTLOK:  cpu time      1.0548: real time      1.0576


--------------------------------------------------------------------------------------------------------


 Quasi-Newton relaxation of ions (Broydens 2nd method)
  g(Force)  = 0.872E-04   g(Stress)= 0.961E-04

 Reset! Starting new Quasi-Newton update for ions 


--------------------------------------------------------------------------------------------------------


  
 reached required accuracy - stopping structural energy minimisation
 writing wavefunctions
     LOOP+:  cpu time   2172.6260: real time   2180.2209
    4ORBIT:  cpu time      0.0000: real time      0.0000



 total charge

# of ion       s       p       d       tot
------------------------------------------
    1        0.322   6.455   1.795   8.572
    2        0.316   6.464   1.734   8.513
    3        0.326   6.455   1.793   8.574
    4        0.320   6.458   1.780   8.558
    5        0.329   6.458   1.815   8.602
    6        0.319   6.454   1.774   8.547
    7        0.326   6.457   1.788   8.572
    8        0.332   6.459   1.839   8.630
    9        0.321   6.455   1.778   8.554
   10        0.321   6.455   1.788   8.563
   11        0.320   6.453   1.802   8.575
   12        0.324   6.454   1.787   8.566
   13        0.316   6.463   1.764   8.544
   14        0.317   6.463   1.750   8.530
   15        0.320   6.460   1.766   8.547
   16        0.322   6.455   1.794   8.570
   17        0.332   6.461   1.841   8.634
   18        0.314   6.457   1.764   8.535
   19        0.315   6.462   1.745   8.522
   20        0.324   6.462   1.803   8.588
   21        0.319   6.459   1.750   8.528
   22        0.317   6.461   1.778   8.556
   23        0.330   6.461   1.831   8.623
   24        0.320   6.457   1.776   8.553
   25        0.329   6.462   1.822   8.612
   26        0.317   6.490   1.680   8.487
   27        0.324   6.457   1.816   8.597
   28        1.570   3.468   0.000   5.038
   29        1.569   3.478   0.000   5.047
   30        1.569   3.472   0.000   5.041
   31        1.569   3.475   0.000   5.043
   32        1.569   3.478   0.000   5.047
   33        1.570   3.464   0.000   5.034
   34        1.571   3.479   0.000   5.051
   35        1.569   3.470   0.000   5.039
   36        1.571   3.469   0.000   5.040
   37        1.569   3.474   0.000   5.043
   38        1.569   3.472   0.000   5.041
   39        1.571   3.469   0.000   5.039
   40        1.569   3.468   0.000   5.038
   41        1.571   3.484   0.000   5.054
   42        1.570   3.471   0.000   5.040
   43        1.569   3.477   0.000   5.046
   44        1.569   3.473   0.000   5.042
   45        1.569   3.476   0.000   5.045
   46        1.570   3.474   0.000   5.044
   47        1.569   3.472   0.000   5.041
   48        1.569   3.475   0.000   5.044
   49        1.569   3.471   0.000   5.040
   50        1.570   3.470   0.000   5.040
   51        1.569   3.475   0.000   5.045
   52        1.570   3.466   0.000   5.036
   53        1.570   3.474   0.000   5.044
   54        1.571   3.481   0.000   5.052
   55        1.730   4.379   0.000   6.109
   56        1.730   4.376   0.000   6.107
   57        1.730   4.379   0.000   6.109
   58        1.729   4.376   0.000   6.106
   59        1.729   4.382   0.000   6.111
   60        1.730   4.376   0.000   6.106
   61        1.730   4.378   0.000   6.108
   62        1.730   4.375   0.000   6.105
   63        1.730   4.380   0.000   6.111
   64        1.730   4.378   0.000   6.108
   65        1.730   4.380   0.000   6.110
   66        1.730   4.377   0.000   6.107
   67        1.730   4.376   0.000   6.106
   68        1.731   4.375   0.000   6.106
   69        1.729   4.381   0.000   6.110
   70        1.730   4.381   0.000   6.111
   71        1.732   4.372   0.000   6.104
   72        1.729   4.379   0.000   6.108
   73        1.729   4.379   0.000   6.108
   74        1.730   4.376   0.000   6.106
   75        1.729   4.378   0.000   6.108
   76        1.729   4.376   0.000   6.106
   77        1.730   4.377   0.000   6.108
   78        1.729   4.385   0.000   6.114
   79        1.730   4.377   0.000   6.107
   80        1.730   4.380   0.000   6.110
   81        1.730   4.378   0.000   6.108
   82        1.730   4.379   0.000   6.109
   83        1.730   4.381   0.000   6.110
   84        1.732   4.373   0.000   6.105
   85        1.730   4.380   0.000   6.110
   86        1.730   4.375   0.000   6.105
   87        1.730   4.375   0.000   6.105
   88        1.730   4.381   0.000   6.111
   89        1.729   4.379   0.000   6.108
   90        1.732   4.370   0.000   6.102
   91        1.730   4.376   0.000   6.106
   92        1.730   4.377   0.000   6.107
   93        1.730   4.381   0.000   6.111
   94        1.730   4.376   0.000   6.106
   95        1.729   4.380   0.000   6.110
   96        1.730   4.378   0.000   6.108
   97        1.729   4.378   0.000   6.108
   98        1.730   4.378   0.000   6.108
   99        1.730   4.378   0.000   6.107
  100        1.730   4.383   0.000   6.113
  101        1.730   4.380   0.000   6.110
  102        1.730   4.375   0.000   6.105
  103        1.730   4.381   0.000   6.110
  104        1.730   4.381   0.000   6.111
  105        1.730   4.382   0.000   6.111
  106        1.730   4.377   0.000   6.107
  107        1.731   4.374   0.000   6.106
  108        1.731   4.372   0.000   6.104
--------------------------------------------------
tot        144.487 504.589  48.153 697.230



 magnetization (x)

# of ion       s       p       d       tot
------------------------------------------
    1        0.000   0.000  -0.000   0.000
    2       -0.000  -0.000   0.000   0.000
    3       -0.000   0.000  -0.000  -0.000
    4        0.000  -0.000   0.000   0.000
    5        0.000  -0.000   0.000   0.000
    6        0.000  -0.000  -0.000  -0.000
    7       -0.000  -0.000  -0.000  -0.000
    8        0.000  -0.000   0.000   0.000
    9        0.000   0.000   0.000   0.000
   10       -0.000  -0.000  -0.000  -0.000
   11       -0.000  -0.000  -0.000  -0.000
   12       -0.000  -0.000  -0.000  -0.000
   13       -0.000  -0.000  -0.000  -0.000
   14       -0.000  -0.000   0.000  -0.000
   15       -0.000  -0.000  -0.000  -0.000
   16       -0.000  -0.000  -0.000  -0.000
   17       -0.000  -0.000  -0.000  -0.000
   18        0.000   0.000   0.000   0.000
   19       -0.000  -0.000  -0.000  -0.000
   20       -0.000  -0.000   0.000   0.000
   21       -0.000  -0.000   0.000  -0.000
   22       -0.000  -0.000  -0.000  -0.000
   23       -0.000  -0.000   0.000   0.000
   24       -0.000  -0.000   0.000  -0.000
   25       -0.000  -0.000   0.000   0.000
   26       -0.000  -0.000   0.000   0.000
   27       -0.000  -0.000   0.000   0.000
   28        0.000   0.000   0.000   0.000
   29        0.000  -0.000   0.000  -0.000
   30        0.000   0.000   0.000   0.000
   31        0.000   0.000   0.000   0.000
   32        0.000   0.000   0.000   0.000
   33        0.000  -0.000   0.000   0.000
   34        0.000  -0.000   0.000  -0.000
   35        0.000  -0.000   0.000  -0.000
   36        0.000  -0.000   0.000  -0.000
   37        0.000   0.000   0.000   0.000
   38        0.000  -0.000   0.000   0.000
   39        0.000  -0.000   0.000  -0.000
   40        0.000  -0.000   0.000  -0.000
   41        0.000   0.000   0.000   0.000
   42        0.000  -0.000   0.000  -0.000
   43        0.000  -0.000   0.000  -0.000
   44        0.000  -0.000   0.000  -0.000
   45        0.000  -0.000   0.000  -0.000
   46        0.000   0.000   0.000   0.000
   47        0.000  -0.000   0.000   0.000
   48        0.000  -0.000   0.000  -0.000
   49       -0.000   0.000   0.000   0.000
   50        0.000  -0.000   0.000  -0.000
   51        0.000   0.000   0.000   0.000
   52        0.000  -0.000   0.000  -0.000
   53        0.000  -0.000   0.000  -0.000
   54        0.000  -0.000   0.000  -0.000
   55        0.000   0.000   0.000   0.000
   56        0.000  -0.000   0.000   0.000
   57        0.000   0.000   0.000   0.000
   58        0.000  -0.000   0.000  -0.000
   59        0.000   0.000   0.000   0.000
   60        0.000  -0.000   0.000  -0.000
   61        0.000  -0.000   0.000   0.000
   62        0.000  -0.000   0.000  -0.000
   63        0.000   0.000   0.000   0.000
   64        0.000   0.000   0.000   0.000
   65        0.000   0.000   0.000   0.000
   66        0.000  -0.000   0.000  -0.000
   67        0.000  -0.000   0.000  -0.000
   68        0.000   0.000   0.000   0.000
   69        0.000   0.000   0.000   0.000
   70        0.000   0.000   0.000   0.000
   71        0.000  -0.000   0.000  -0.000
   72        0.000   0.000   0.000   0.000
   73        0.000  -0.000   0.000   0.000
   74        0.000  -0.000   0.000   0.000
   75        0.000   0.000   0.000   0.000
   76        0.000  -0.000   0.000  -0.000
   77        0.000   0.000   0.000   0.000
   78        0.000   0.000   0.000   0.000
   79        0.000   0.000   0.000   0.000
   80        0.000   0.000   0.000   0.000
   81        0.000   0.000   0.000   0.000
   82        0.000   0.000   0.000   0.000
   83        0.000   0.000   0.000   0.000
   84        0.000   0.000   0.000   0.000
   85        0.000  -0.000   0.000   0.000
   86        0.000  -0.000   0.000  -0.000
   87        0.000   0.000   0.000   0.000
   88        0.000  -0.000   0.000   0.000
   89        0.000   0.000   0.000   0.000
   90        0.000  -0.000   0.000  -0.000
   91        0.000  -0.000   0.000  -0.000
   92        0.000  -0.000   0.000   0.000
   93        0.000   0.000   0.000   0.000
   94        0.000  -0.000   0.000  -0.000
   95        0.000   0.000   0.000   0.000
   96        0.000   0.000   0.000   0.000
   97        0.000   0.000   0.000   0.000
   98        0.000   0.000   0.000   0.000
   99        0.000  -0.000   0.000  -0.000
  100        0.000  -0.000   0.000   0.000
  101        0.000   0.000   0.000   0.000
  102        0.000  -0.000   0.000  -0.000
  103        0.000   0.000   0.000   0.000
  104        0.000   0.000   0.000   0.000
  105        0.000   0.000   0.000   0.000
  106        0.000   0.000   0.000   0.000
  107        0.000  -0.000   0.000   0.000
  108        0.000  -0.000   0.000  -0.000
--------------------------------------------------
tot          0.000  -0.000   0.000   0.000
 

 total amount of memory used by VASP MPI-rank0   297910. kBytes
=======================================================================

   base      :      30000. kBytes
   nonlr-proj:      25269. kBytes
   fftplans  :      18873. kBytes
   grid      :      21088. kBytes
   one-center:        435. kBytes
   wavefun   :     202245. kBytes
 
  
  
 General timing and accounting informations for this job:
 ========================================================
  
                  Total CPU time used (sec):     2275.133
                            User time (sec):     2247.737
                          System time (sec):       27.396
                         Elapsed time (sec):     2284.123
  
                   Maximum memory used (kb):      890224.
                   Average memory used (kb):          N/A
  
                          Minor page faults:       260756
                          Major page faults:           12
                 Voluntary context switches:        15737
