LTO                                     
           1
     7.838951    0.000007    0.000017
     0.000025    7.813551    0.000005
     0.000006    0.000005    7.657183
   Ti   O    F 
   8   8  16
Direct configuration=     1
   0.00097910  0.99999949  0.00000106
   0.00117200  0.99999786  0.50000108
   0.97932407  0.49999823  0.99999691
   0.98107304  0.49999691  0.49999667
   0.50034482  0.99998213  0.99992941
   0.50073123  0.00016270  0.49994017
   0.50095280  0.50000634  0.00008112
   0.49974560  0.49997012  0.50004545
   0.75832566  0.49999430  0.99999913
   0.76284025  0.49998863  0.49999265
   0.49984241  0.24702615  0.50001004
   0.49983455  0.75292267  0.50000958
   0.50101715  0.99994875  0.24510246
   0.50102117  0.99995074  0.75495636
   0.49875851  0.50004214  0.24645249
   0.49875803  0.50004137  0.75348771
   0.24514634  0.00001364  0.00000266
   0.23761768  0.00001002  0.50000909
   0.24142858  0.50000006  0.99999382
   0.23686199  0.49997937  0.49998991
   0.75637973  0.99999359  0.00000770
   0.76430335  0.99999746  0.50000231
   0.00420532  0.25347400  0.00000038
   0.00267974  0.24411705  0.49999948
   0.00419874  0.74652428  0.99999852
   0.00268956  0.75587689  0.50000045
   0.49788570  0.24839410  0.99999894
   0.49788012  0.75159533  0.99999803
   0.99979076  0.99999836  0.25705820
   0.99978454  0.00000053  0.74294445
   0.01221442  0.49999906  0.25032406
   0.01221302  0.49999774  0.74966973
