 vasp.6.3.0 20Jan22 (build Jan 25 2022 13:20:17) complex                        
  
 executed on             LinuxIFC date 2024.06.05  15:58:53
 running on   80 total cores
 distrk:  each k-point on   80 cores,    1 groups
 distr:  one band on NCORE=   8 cores,   10 groups


--------------------------------------------------------------------------------------------------------


 INCAR:
   SYSTEM = LTO
   ISTART = 1
   ENCUT = 700.0
   IALGO = 38
   EDIFF = 1E-6
   PREC = Accurate
   ISPIN = 2
   LMAXMIX = 4
   ADDGRID = .TRUE.
   LASPH = .TRUE.
   LREAL = Auto
   ROPT = 1E-4 1E-4 1E-4
   GGA = PS
   LDAU = .TRUE.
   LDAUTYPE = 2
   LDAUL = 2   -1    -1
   LDAUU = 4.2  0.0  0.0
   LDAUJ = 0.0  0.0  0.0
   NSW = 100
   EDIFFG = -0.01
   IBRION = 1
   ISIF = 3
   ISMEAR = 0
   SIGMA = 0.01
   ISYM = 0
   LORBIT = 11
   NEDOS = 3001
   NWRITE = 2
   NCORE = 8

 POTCAR:   PAW_PBE Ti_pv 07Sep2000                
 POTCAR:   PAW_PBE O 08Apr2002                    
 POTCAR:    PAW_PBE F 08Apr2002                   
 -----------------------------------------------------------------------------
|                                                                             |
|           W    W    AA    RRRRR   N    N  II  N    N   GGGG   !!!           |
|           W    W   A  A   R    R  NN   N  II  NN   N  G    G  !!!           |
|           W    W  A    A  R    R  N N  N  II  N N  N  G       !!!           |
|           W WW W  AAAAAA  RRRRR   N  N N  II  N  N N  G  GGG   !            |
|           WW  WW  A    A  R   R   N   NN  II  N   NN  G    G                |
|           W    W  A    A  R    R  N    N  II  N    N   GGGG   !!!           |
|                                                                             |
|     You use a magnetic or noncollinear calculation, but did not specify     |
|     the initial magnetic moment with the MAGMOM tag. Note that a            |
|     default of 1 will be used for all atoms. This ferromagnetic setup       |
|     may break the symmetry of the crystal, in particular it may rule        |
|     out finding an antiferromagnetic solution. Thence, we recommend         |
|     setting the initial magnetic moment manually or verifying carefully     |
|     that this magnetic setup is desired.                                    |
|                                                                             |
 -----------------------------------------------------------------------------

 POTCAR:   PAW_PBE Ti_pv 07Sep2000                
   VRHFIN =Ti: d3 s1                                                                                
   LEXCH  = PE                                                                                      
   EATOM  =  1042.3781 eV,   76.6126 Ry                                                             
                                                                                                    
   TITEL  = PAW_PBE Ti_pv 07Sep2000                                                                 
   LULTRA =        F    use ultrasoft PP ?                                                          
   IUNSCR =        1    unscreen: 0-lin 1-nonlin 2-no                                               
   RPACOR =    2.200    partial core radius                                                         
   POMASS =   47.880; ZVAL   =   10.000    mass and valenz                                          
   RCORE  =    2.500    outmost cutoff radius                                                       
   RWIGS  =    2.500; RWIGS  =    1.323    wigner-seitz radius (au A)                               
   ENMAX  =  222.338; ENMIN  =  166.753 eV                                                          
   RCLOC  =    1.701    cutoff for local pot                                                        
   LCOR   =        T    correct aug charges                                                         
   LPAW   =        T    paw PP                                                                      
   EAUG   =  482.848                                                                                
   DEXC   =    -.008                                                                                
   RMAX   =    3.092    core radius for proj-oper                                                   
   RAUG   =    1.300    factor for augmentation sphere                                              
   RDEP   =    2.538    radius for radial grids                                                     
   QCUT   =   -4.042; QGAM   =    8.085    optimization parameters                                  
                                                                                                    
   Description                                                                                      
     l     E      TYP  RCUT    TYP  RCUT                                                            
     1   .000     23  2.300                                                                         
     1  -.100     23  2.300                                                                         
     2   .000     23  2.500                                                                         
     2   .000     23  2.500                                                                         
     0   .000     23  2.500                                                                         
     0  1.500     23  2.500                                                                         
     3   .000      7   .000                                                                         
  local pseudopotential read in
  partial core-charges read in
  atomic valenz-charges read in
  non local Contribution for L=           1  read in
    real space projection operators read in
  non local Contribution for L=           1  read in
    real space projection operators read in
  non local Contribution for L=           2  read in
    real space projection operators read in
  non local Contribution for L=           2  read in
    real space projection operators read in
  non local Contribution for L=           0  read in
    real space projection operators read in
  non local Contribution for L=           0  read in
    real space projection operators read in
    PAW grid and wavefunctions read in
 
   number of l-projection  operators is LMAX  =           6
   number of lm-projection operators is LMMAX =          18
 
 POTCAR:   PAW_PBE O 08Apr2002                    
   VRHFIN =O: s2p4                                                                                  
   LEXCH  = PE                                                                                      
   EATOM  =   432.3788 eV,   31.7789 Ry                                                             
                                                                                                    
   TITEL  = PAW_PBE O 08Apr2002                                                                     
   LULTRA =        F    use ultrasoft PP ?                                                          
   IUNSCR =        0    unscreen: 0-lin 1-nonlin 2-no                                               
   RPACOR =     .000    partial core radius                                                         
   POMASS =   16.000; ZVAL   =    6.000    mass and valenz                                          
   RCORE  =    1.520    outmost cutoff radius                                                       
   RWIGS  =    1.550; RWIGS  =     .820    wigner-seitz radius (au A)                               
   ENMAX  =  400.000; ENMIN  =  300.000 eV                                                          
   ICORE  =        2    local potential                                                             
   LCOR   =        T    correct aug charges                                                         
   LPAW   =        T    paw PP                                                                      
   EAUG   =  605.392                                                                                
   DEXC   =     .000                                                                                
   RMAX   =    2.264    core radius for proj-oper                                                   
   RAUG   =    1.300    factor for augmentation sphere                                              
   RDEP   =    1.550    radius for radial grids                                                     
   QCUT   =   -5.520; QGAM   =   11.041    optimization parameters                                  
                                                                                                    
   Description                                                                                      
     l     E      TYP  RCUT    TYP  RCUT                                                            
     0   .000     23  1.200                                                                         
     0  -.700     23  1.200                                                                         
     1   .000     23  1.520                                                                         
     1   .600     23  1.520                                                                         
     2   .000      7  1.500                                                                         
  local pseudopotential read in
  atomic valenz-charges read in
  non local Contribution for L=           0  read in
    real space projection operators read in
  non local Contribution for L=           0  read in
    real space projection operators read in
  non local Contribution for L=           1  read in
    real space projection operators read in
  non local Contribution for L=           1  read in
    real space projection operators read in
    PAW grid and wavefunctions read in
 
   number of l-projection  operators is LMAX  =           4
   number of lm-projection operators is LMMAX =           8
 
 POTCAR:    PAW_PBE F 08Apr2002                   
   VRHFIN =F: s2p5                                                                                  
   LEXCH  = PE                                                                                      
   EATOM  =   659.6475 eV,   48.4827 Ry                                                             
                                                                                                    
   TITEL  = PAW_PBE F 08Apr2002                                                                     
   LULTRA =        F    use ultrasoft PP ?                                                          
   IUNSCR =        1    unscreen: 0-lin 1-nonlin 2-no                                               
   RPACOR =    1.200    partial core radius                                                         
   POMASS =   18.998; ZVAL   =    7.000    mass and valenz                                          
   RCORE  =    1.520    outmost cutoff radius                                                       
   RWIGS  =    1.500; RWIGS  =    0.794    wigner-seitz radius (au A)                               
   ENMAX  =  400.000; ENMIN  =  300.000 eV                                                          
   ICORE  =        2    local potential                                                             
   LCOR   =        T    correct aug charges                                                         
   LPAW   =        T    paw PP                                                                      
   EAUG   =  613.614                                                                                
   RMAX   =    1.555    core radius for proj-oper                                                   
   RAUG   =    1.300    factor for augmentation sphere                                              
   RDEP   =    1.539    radius for radial grids                                                     
   RDEPT  =    1.299    core radius for aug-charge                                                  
                                                                                                    
   Atomic configuration                                                                             
    4 entries                                                                                       
     n  l   j            E        occ.                                                              
     1  0  0.50      -663.3661   2.0000                                                             
     2  0  0.50       -29.8995   2.0000                                                             
     2  1  0.50       -11.1114   5.0000                                                             
     3  2  1.50       -10.8847   0.0000                                                             
   Description                                                                                      
     l       E           TYP  RCUT    TYP  RCUT                                                     
     0    -29.8995018     23  1.200                                                                 
     0     -9.5240782     23  1.200                                                                 
     1    -11.1113914     23  1.520                                                                 
     1      1.3605826     23  1.520                                                                 
     2    -10.8846608      7  1.500                                                                 
  local pseudopotential read in
  partial core-charges read in
  partial kinetic energy density read in
  atomic valenz-charges read in
  non local Contribution for L=           0  read in
    real space projection operators read in
  non local Contribution for L=           0  read in
    real space projection operators read in
  non local Contribution for L=           1  read in
    real space projection operators read in
  non local Contribution for L=           1  read in
    real space projection operators read in
    PAW grid and wavefunctions read in
 
   number of l-projection  operators is LMAX  =           4
   number of lm-projection operators is LMMAX =           8
 
 Optimization of the real space projectors (new method)

 maximal supplied QI-value         = 15.12
 optimisation between [QCUT,QGAM] = [ 13.45, 27.06] = [ 50.69,205.06] Ry 
 Optimized for a Real-space Cutoff    1.49 Angstroem

   l    n(q)    QCUT    max X(q) W(low)/X(q) W(high)/X(q)  e(spline) 
   1     12    13.455     4.841    0.13E-05    0.83E-06    0.56E-07
   1     12    13.455     5.701    0.32E-04    0.25E-04    0.17E-06
   2     11    13.455     4.569    0.64E-05    0.34E-05    0.50E-07
   2     11    13.455    32.276    0.49E-04    0.38E-04    0.46E-06
   0     12    13.455    30.046    0.17E-04    0.41E-05    0.51E-07
   0     12    13.455    45.433    0.12E-04    0.27E-04    0.38E-06
 Optimization of the real space projectors (new method)

 maximal supplied QI-value         = 24.76
 optimisation between [QCUT,QGAM] = [ 13.37, 26.98] = [ 50.04,203.89] Ry 
 Optimized for a Real-space Cutoff    1.17 Angstroem

   l    n(q)    QCUT    max X(q) W(low)/X(q) W(high)/X(q)  e(spline) 
   0      9    13.368     4.192    0.20E-04    0.58E-05    0.56E-07
   0      9    13.368     8.473    0.60E-04    0.52E-04    0.21E-06
   1      9    13.368     2.474    0.22E-04    0.17E-04    0.28E-07
   1      9    13.368     3.912    0.94E-04    0.97E-04    0.20E-06
 Optimization of the real space projectors (new method)

 maximal supplied QI-value         = 24.76
 optimisation between [QCUT,QGAM] = [ 13.37, 26.98] = [ 50.04,203.89] Ry 
 Optimized for a Real-space Cutoff    1.17 Angstroem

   l    n(q)    QCUT    max X(q) W(low)/X(q) W(high)/X(q)  e(spline) 
   0      9    13.368    14.049    0.39E-04    0.34E-04    0.16E-06
   0      9    13.368     8.945    0.54E-04    0.47E-04    0.20E-06
   1      9    13.368     7.086    0.99E-04    0.10E-03    0.23E-06
   1      9    13.368     6.747    0.86E-04    0.89E-04    0.21E-06
 -----------------------------------------------------------------------------
|                                                                             |
|               ----> ADVICE to this user running VASP <----                  |
|                                                                             |
|     You enforced a specific xc type in the INCAR file but a different       |
|     type was found in the POTCAR file.                                      |
|     I HOPE YOU KNOW WHAT YOU ARE DOING!                                     |
|                                                                             |
 -----------------------------------------------------------------------------

 PAW_PBE Ti_pv 07Sep2000                :
 energy of atom  1       EATOM=-1042.3781
 kinetic energy error for atom=    0.0006 (will be added to EATOM!!)
 PAW_PBE O 08Apr2002                    :
 energy of atom  2       EATOM= -432.3788
 kinetic energy error for atom=    0.0091 (will be added to EATOM!!)
  PAW_PBE F 08Apr2002                   :
 energy of atom  3       EATOM= -659.6475
 kinetic energy error for atom=    0.0140 (will be added to EATOM!!)
 
 
 POSCAR: Ti27 O27 F54
  positions in direct lattice
  velocities in cartesian coordinates
 exchange correlation table for  LEXCH =       14
   RHO(1)=    0.500       N(1)  =     2000
   RHO(2)=  100.500       N(2)  =     4000
 


--------------------------------------------------------------------------------------------------------


 ion  position               nearest neighbor table
   1  0.010  0.989  1.000-  28 1.81  37 1.81  92 1.95  91 1.96  84 2.08  55 2.10
   2  0.008  0.989  0.342-  29 1.81  46 1.85  38 1.86  91 2.06  85 2.06  56 2.14
   3  0.992  0.992  0.656-  46 1.81  44 1.86  30 1.87  92 2.06  73 2.07  57 2.07
   4  0.012  0.334  0.993-  39 1.77  47 1.87  58 1.92  55 1.93  93 2.06  86 2.09
   5  0.999  0.333  0.334-  56 1.87  59 1.88  94 1.89  87 1.90  93 1.90  74 1.91
   6  0.999  0.334  0.680-  47 1.76  60 1.91  57 1.91  88 1.93  75 1.94  94 2.11
   7  0.008  0.676  0.010-  48 1.82  28 1.85  40 1.87  89 2.07  58 2.07  96 2.08
   8  0.991  0.677  0.324-  29 1.82  48 1.84  45 1.85  76 2.07  95 2.07  59 2.14
   9  0.009  0.678  0.668-  30 1.78  41 1.86  96 1.94  95 1.94  90 2.03  60 2.11
  10  0.325  0.008  0.010-  49 1.84  37 1.85  31 1.86  77 2.06  65 2.06  98 2.07
  11  0.323  0.000  0.322-  38 1.80  49 1.81  61 1.97  66 1.98  78 2.08  97 2.08
  12  0.335  0.988  0.667-  33 1.78  98 1.92  97 1.92  73 1.93  79 1.93  62 2.07
  13  0.326  0.322  0.992-  31 1.80  50 1.87  39 1.88  99 2.05  80 2.06  63 2.07
  14  0.340  0.345  0.335-  32 1.79  42 1.87  99 1.93 100 1.93  61 2.03  74 2.07
  15  0.342  0.333  0.678-  50 1.78  43 1.86  62 1.94  64 1.95  75 2.06 100 2.07
  16  0.321  0.666  0.007-  40 1.78  51 1.86  63 1.95  65 1.95 102 2.04  81 2.10
  17  0.333  0.660  0.322-  51 1.80  32 1.87  82 1.94  76 1.94  66 2.02 101 2.06
  18  0.323  0.673  0.666-  41 1.80  33 1.88 101 1.94 102 1.94  64 2.03  83 2.05
  19  0.666  0.993  0.010-  52 1.80  34 1.88  77 1.93  84 1.93 104 2.05  67 2.05
  20  0.666  0.988  0.325-  35 1.78  52 1.86  85 1.94  78 1.94 103 2.03  68 2.11
  21  0.679  0.990  0.668-  44 1.79  36 1.83 104 1.95 103 1.96  69 2.07  79 2.08
  22  0.667  0.335  0.988-  53 1.78  70 1.92  86 1.92  80 1.92  67 1.92 105 2.08
  23  0.653  0.333  0.333-  42 1.76  68 1.91  71 1.91 105 1.93 106 1.94  87 2.11
  24  0.655  0.333  0.673-  43 1.79  53 1.87  69 1.92  72 1.92 106 2.04  88 2.08
  25  0.666  0.679  0.999-  34 1.78  81 1.92  89 1.92 107 1.93 108 1.93  70 2.09
  26  0.678  0.675  0.342-  45 1.81  54 1.86  35 1.87  82 2.07 107 2.07  71 2.07
  27  0.666  0.676  0.655-  54 1.79  36 1.83  83 1.95  90 1.96  72 2.07 108 2.09
  28  0.991  0.834  0.997-   1 1.81   7 1.85
  29  0.996  0.834  0.333-   2 1.81   8 1.82
  30  0.002  0.832  0.670-   9 1.78   3 1.87
  31  0.337  0.167  0.001-  13 1.80  10 1.86
  32  0.330  0.499  0.335-  14 1.79  17 1.87
  33  0.338  0.834  0.667-  12 1.78  18 1.88
  34  0.671  0.832  0.996-  25 1.78  19 1.88
  35  0.667  0.835  0.332-  20 1.78  26 1.87
  36  0.662  0.833  0.671-  27 1.83  21 1.83
  37  0.166  0.998  0.004-   1 1.81  10 1.85
  38  0.167  0.003  0.327-  11 1.80   2 1.86
  39  0.165  0.336  0.004-   4 1.77  13 1.88
  40  0.168  0.665  0.989-  16 1.78   7 1.87
  41  0.169  0.663  0.670-  18 1.80   9 1.86
  42  0.501  0.331  0.339-  23 1.76  14 1.87
  43  0.501  0.333  0.658-  24 1.79  15 1.86
  44  0.832  0.003  0.670-  21 1.79   3 1.86
  45  0.833  0.657  0.331-  26 1.81   8 1.85
  46  0.002  0.006  0.500-   3 1.81   2 1.85
  47  0.997  0.334  0.832-   6 1.76   4 1.87
  48  0.008  0.661  0.167-   7 1.82   8 1.84
  49  0.345  0.992  0.167-  11 1.81  10 1.84
  50  0.335  0.337  0.831-  15 1.78  13 1.87
  51  0.329  0.673  0.167-  17 1.80  16 1.86
  52  0.663  0.004  0.165-  19 1.80  20 1.86
  53  0.668  0.334  0.834-  22 1.78  24 1.87
  54  0.664  0.663  0.501-  27 1.79  26 1.86
  55  0.994  0.169  0.006-   4 1.93   1 2.10
  56  0.994  0.172  0.328-   5 1.87   2 2.14
  57  0.006  0.170  0.665-   6 1.91   3 2.07
  58  0.991  0.498  0.000-   4 1.92   7 2.07
  59  0.010  0.495  0.340-   5 1.88   8 2.14
  60  0.996  0.497  0.660-   6 1.91   9 2.11
  61  0.333  0.170  0.332-  11 1.97  14 2.03
  62  0.329  0.166  0.666-  15 1.94  12 2.07
  63  0.340  0.499  0.005-  16 1.95  13 2.07
  64  0.333  0.499  0.657-  15 1.95  18 2.03
  65  0.341  0.832  0.987-  16 1.95  10 2.06
  66  0.339  0.832  0.345-  11 1.98  17 2.02
  67  0.662  0.169  0.001-  22 1.92  19 2.05
  68  0.673  0.170  0.337-  23 1.91  20 2.11
  69  0.667  0.168  0.662-  24 1.92  21 2.07
  70  0.667  0.499  0.005-  22 1.92  25 2.09
  71  0.664  0.497  0.327-  23 1.91  26 2.07
  72  0.673  0.498  0.668-  24 1.92  27 2.07
  73  0.169  0.004  0.671-  12 1.93   3 2.07
  74  0.163  0.326  0.330-   5 1.91  14 2.07
  75  0.165  0.337  0.662-   6 1.94  15 2.06
  76  0.168  0.668  0.346-  17 1.94   8 2.07
  77  0.501  0.998  0.991-  19 1.93  10 2.06
  78  0.500  0.008  0.343-  20 1.94  11 2.08
  79  0.500  0.010  0.665-  12 1.93  21 2.08
  80  0.503  0.338  0.008-  22 1.92  13 2.06
  81  0.502  0.664  0.998-  25 1.92  16 2.10
  82  0.501  0.663  0.330-  17 1.94  26 2.07
  83  0.499  0.656  0.671-  27 1.95  18 2.05
  84  0.831  0.010  0.993-  19 1.93   1 2.08
  85  0.832  0.009  0.335-  20 1.94   2 2.06
  86  0.832  0.332  0.007-  22 1.92   4 2.09
  87  0.835  0.340  0.334-   5 1.90  23 2.11
  88  0.834  0.329  0.660-   6 1.93  24 2.08
  89  0.831  0.658  0.001-  25 1.92   7 2.07
  90  0.834  0.662  0.668-  27 1.96   9 2.03
  91  0.988  0.007  0.166-   1 1.96   2 2.06
  92  0.003  0.012  0.833-   1 1.95   3 2.06
  93  0.994  0.339  0.170-   5 1.90   4 2.06
  94  0.000  0.329  0.498-   5 1.89   6 2.11
  95  0.999  0.660  0.501-   9 1.94   8 2.07
  96  0.991  0.655  0.833-   9 1.94   7 2.08
  97  0.333  0.005  0.501-  12 1.92  11 2.08
  98  0.336  0.003  0.832-  12 1.92  10 2.07
  99  0.334  0.334  0.168-  14 1.93  13 2.05
 100  0.323  0.328  0.500-  14 1.93  15 2.07
 101  0.341  0.667  0.500-  18 1.94  17 2.06
 102  0.343  0.657  0.832-  18 1.94  16 2.04
 103  0.666  0.005  0.500-  21 1.96  20 2.03
 104  0.662  0.011  0.834-  21 1.95  19 2.05
 105  0.670  0.330  0.167-  23 1.93  22 2.08
 106  0.677  0.338  0.498-  23 1.94  24 2.04
 107  0.662  0.662  0.164-  25 1.93  26 2.07
 108  0.668  0.656  0.834-  25 1.93  27 2.09
 

IMPORTANT INFORMATION: All symmetrisations will be switched off!
NOSYMM: (Re-)initialisation of all symmetry stuff for point group C_1.


----------------------------------------------------------------------------------------

                                     Primitive cell                                     

  volume of cell :    1556.4149

  direct lattice vectors                    reciprocal lattice vectors
    11.587052268 -0.000853917  0.004722738     0.086303242  0.000006340 -0.000035195
    -0.000849469 11.600341760  0.006598320     0.000006373  0.086204385 -0.000048815
     0.004721643  0.006556650 11.579287675    -0.000035203 -0.000049125  0.086361140

  length of vectors
    11.587053262 11.600343667 11.579290494     0.086303249  0.086204399  0.086361162

  position of ions in fractional coordinates (direct lattice)
     0.009870610  0.988863727  0.999757847
     0.008184835  0.988870588  0.341929784
     0.991807313  0.992020207  0.656059142
     0.011990729  0.333631388  0.993048575
     0.998538469  0.333463814  0.334401805
     0.999011183  0.333826452  0.680074408
     0.008405626  0.675620616  0.010201659
     0.991151850  0.677455606  0.323802945
     0.008593214  0.678411575  0.667939545
     0.324820453  0.007835210  0.010318809
     0.322734728  0.000453340  0.321606584
     0.334888059  0.988109224  0.666617625
     0.325952298  0.321990720  0.992276461
     0.340280422  0.344589427  0.334856359
     0.341990028  0.332536653  0.677608863
     0.320950810  0.666225464  0.007285035
     0.333488240  0.659610395  0.322290390
     0.323347824  0.673198923  0.666420627
     0.666414450  0.992837796  0.010427506
     0.665927128  0.988235398  0.325246551
     0.678634064  0.990275534  0.667976992
     0.667332964  0.334524939  0.987841800
     0.653098812  0.332721818  0.332914229
     0.655029847  0.333460404  0.673065290
     0.666461007  0.678765495  0.998884059
     0.678413646  0.674521025  0.341913514
     0.665759992  0.676416266  0.655065081
     0.991432509  0.833827053  0.996645091
     0.996056135  0.833696601  0.333256097
     0.001832885  0.832040390  0.670300632
     0.337216659  0.167347953  0.001026348
     0.329625262  0.498592495  0.334831674
     0.337788820  0.834324744  0.667204050
     0.671115314  0.831891144  0.996167470
     0.667434183  0.834680827  0.331924415
     0.662454984  0.833263792  0.671108323
     0.165998459  0.997716836  0.004400459
     0.167495424  0.002750876  0.326610128
     0.164554535  0.335841041  0.004011662
     0.168144774  0.665204163  0.988957131
     0.168569112  0.663020034  0.670310456
     0.500963453  0.330970248  0.338751900
     0.501027984  0.333424030  0.658459196
     0.832467176  0.002882772  0.669698916
     0.833153033  0.657113853  0.331422080
     0.001960579  0.005845779  0.500383544
     0.996652919  0.333849494  0.832239103
     0.007539850  0.660626301  0.166582301
     0.344902710  0.991962081  0.167232816
     0.335190935  0.336986081  0.831456901
     0.328867614  0.673235259  0.167288665
     0.662904541  0.003878529  0.165334208
     0.667618819  0.333733596  0.834371486
     0.663665818  0.662998742  0.501046222
     0.994447209  0.169024950  0.005668274
     0.993717167  0.172226201  0.328202520
     0.005897834  0.170046999  0.665476832
     0.991378631  0.497985529  0.000325846
     0.009795309  0.494630254  0.339864848
     0.995849219  0.497005218  0.659762121
     0.332669752  0.169691721  0.331859322
     0.328886778  0.166052412  0.666026457
     0.340174206  0.499060274  0.005164502
     0.333484893  0.499031727  0.657214360
     0.341288146  0.832202302  0.987243376
     0.338563756  0.832482366  0.345334378
     0.662463854  0.169180794  0.000674462
     0.673322591  0.169736599  0.337039639
     0.666867656  0.168385010  0.662195137
     0.667062839  0.499007282  0.005013279
     0.663794578  0.496988736  0.326840988
     0.672544690  0.498401392  0.667842945
     0.169276840  0.003594178  0.670868123
     0.162925458  0.325662020  0.329536403
     0.165161359  0.337382299  0.661959239
     0.167801695  0.668495133  0.345865233
     0.501418643  0.997885570  0.990518563
     0.500299741  0.008277309  0.343468500
     0.499896086  0.010136776  0.665237098
     0.502627870  0.337889369  0.008379800
     0.501595112  0.663914823  0.997936540
     0.500604686  0.662585618  0.329998578
     0.499429098  0.656415183  0.671301527
     0.831310449  0.009750856  0.993342874
     0.832000352  0.008996293  0.334834965
     0.831948297  0.331976017  0.006819448
     0.834863339  0.340271761  0.333989938
     0.833734385  0.329208765  0.660110780
     0.830728606  0.657941676  0.001206572
     0.833771826  0.662326281  0.667839117
     0.987922641  0.006942239  0.166478839
     0.002843489  0.011900643  0.832761910
     0.994410357  0.338572275  0.170195160
     0.000137760  0.328707006  0.497794140
     0.999150232  0.660166368  0.501355806
     0.991279416  0.654512564  0.833011637
     0.332798256  0.004891338  0.501260813
     0.335904482  0.002856737  0.831576851
     0.333957087  0.333979862  0.168483342
     0.322548291  0.327593840  0.499980196
     0.340680455  0.666750281  0.500287184
     0.343297488  0.657449937  0.832428858
     0.665829792  0.005146055  0.499841966
     0.662272917  0.010651779  0.834451151
     0.669632333  0.329533089  0.167340095
     0.676774888  0.337791451  0.498473849
     0.661704149  0.662431171  0.164390791
     0.667539933  0.656096954  0.834072070

  ion indices of the primitive-cell ions
   primitive index   ion index
                 1           1
                 2           2
                 3           3
                 4           4
                 5           5
                 6           6
                 7           7
                 8           8
                 9           9
                10          10
                11          11
                12          12
                13          13
                14          14
                15          15
                16          16
                17          17
                18          18
                19          19
                20          20
                21          21
                22          22
                23          23
                24          24
                25          25
                26          26
                27          27
                28          28
                29          29
                30          30
                31          31
                32          32
                33          33
                34          34
                35          35
                36          36
                37          37
                38          38
                39          39
                40          40
                41          41
                42          42
                43          43
                44          44
                45          45
                46          46
                47          47
                48          48
                49          49
                50          50
                51          51
                52          52
                53          53
                54          54
                55          55
                56          56
                57          57
                58          58
                59          59
                60          60
                61          61
                62          62
                63          63
                64          64
                65          65
                66          66
                67          67
                68          68
                69          69
                70          70
                71          71
                72          72
                73          73
                74          74
                75          75
                76          76
                77          77
                78          78
                79          79
                80          80
                81          81
                82          82
                83          83
                84          84
                85          85
                86          86
                87          87
                88          88
                89          89
                90          90
                91          91
                92          92
                93          93
                94          94
                95          95
                96          96
                97          97
                98          98
                99          99
               100         100
               101         101
               102         102
               103         103
               104         104
               105         105
               106         106
               107         107
               108         108

----------------------------------------------------------------------------------------

 
 
 KPOINTS: Title                                   

Automatic generation of k-mesh.
 Grid dimensions read from file:
 generate k-points for:    3    3    3

 Generating k-lattice:

  Cartesian coordinates                     Fractional coordinates (reciprocal lattice)
     0.028767747  0.000002113 -0.000011732     0.333333333  0.000000000 -0.000000000
     0.000002124  0.028734795 -0.000016272    -0.000000000  0.333333333 -0.000000000
    -0.000011734 -0.000016375  0.028787047    -0.000000000  0.000000000  0.333333333

  Length of vectors
     0.028767750  0.028734800  0.028787054

  Shift w.r.t. Gamma in fractional coordinates (k-lattice)
     0.000000000  0.000000000  0.000000000

 
 Subroutine IBZKPT returns following result:
 ===========================================
 
 Found     14 irreducible k-points:
 
 Following reciprocal coordinates:
            Coordinates               Weight
  0.000000  0.000000  0.000000      1.000000
  0.333333 -0.000000 -0.000000      2.000000
 -0.000000  0.333333  0.000000      2.000000
  0.333333  0.333333  0.000000      2.000000
 -0.333333  0.333333  0.000000      2.000000
  0.000000  0.000000  0.333333      2.000000
  0.333333  0.000000  0.333333      2.000000
 -0.333333 -0.000000  0.333333      2.000000
  0.000000  0.333333  0.333333      2.000000
  0.333333  0.333333  0.333333      2.000000
 -0.333333  0.333333  0.333333      2.000000
  0.000000 -0.333333  0.333333      2.000000
  0.333333 -0.333333  0.333333      2.000000
 -0.333333 -0.333333  0.333333      2.000000
 
 Following cartesian coordinates:
            Coordinates               Weight
  0.000000  0.000000  0.000000      1.000000
  0.028768  0.000002 -0.000012      2.000000
  0.000002  0.028735 -0.000016      2.000000
  0.028770  0.028737 -0.000028      2.000000
 -0.028766  0.028733 -0.000005      2.000000
 -0.000012 -0.000016  0.028787      2.000000
  0.028756 -0.000014  0.028775      2.000000
 -0.028779 -0.000018  0.028799      2.000000
 -0.000010  0.028718  0.028771      2.000000
  0.028758  0.028721  0.028759      2.000000
 -0.028777  0.028716  0.028783      2.000000
 -0.000014 -0.028751  0.028803      2.000000
  0.028754 -0.028749  0.028792      2.000000
 -0.028782 -0.028753  0.028815      2.000000
 


--------------------------------------------------------------------------------------------------------




 Dimension of arrays:
   k-points           NKPTS =     14   k-points in BZ     NKDIM =     14   number of bands    NBANDS=    540
   number of dos      NEDOS =   3001   number of ions     NIONS =    108
   non local maximal  LDIM  =      6   non local SUM 2l+1 LMDIM =     18
   total plane-waves  NPLWV = ******
   max r-space proj   IRMAX =   8915   max aug-charges    IRDMAX= 199734
   dimension x,y,z NGX =   100 NGY =  100 NGZ =  100
   dimension x,y,z NGXF=   200 NGYF=  200 NGZF=  200
   support grid    NGXF=   400 NGYF=  400 NGZF=  400
   ions per type =              27  27  54
   NGX,Y,Z   is equivalent  to a cutoff of  14.35, 14.33, 14.36 a.u.
   NGXF,Y,Z  is equivalent  to a cutoff of  28.70, 28.66, 28.71 a.u.

 SYSTEM =  LTO                                     
 POSCAR =  Ti27 O27 F54                            

 Startparameter for this run:
   NWRITE =      2    write-flag & timer
   PREC   = accura    normal or accurate (medium, high low for compatibility)
   ISTART =      1    job   : 0-new  1-cont  2-samecut
   ICHARG =      0    charge: 1-file 2-atom 10-const
   ISPIN  =      2    spin polarized calculation?
   LNONCOLLINEAR =      F non collinear calculations
   LSORBIT =      F    spin-orbit coupling
   INIWAV =      1    electr: 0-lowe 1-rand  2-diag
   LASPH  =      T    aspherical Exc in radial PAW
 Electronic Relaxation 1
   ENCUT  =  700.0 eV  51.45 Ry    7.17 a.u.  25.00 25.03 24.98*2*pi/ulx,y,z
   ENINI  =  700.0     initial cutoff
   ENAUG  =  613.6 eV  augmentation charge cutoff
   NELM   =     60;   NELMIN=  2; NELMDL=  0     # of ELM steps 
   EDIFF  = 0.1E-05   stopping-criterion for ELM
   LREAL  =      T    real-space projection
   NLSPLINE    = F    spline interpolate recip. space projectors
   LCOMPAT=      F    compatible to vasp.4.4
   GGA_COMPAT  = T    GGA compatible to vasp.4.4-vasp.4.6
   LMAXPAW     = -100 max onsite density
   LMAXMIX     =    4 max onsite mixed and CHGCAR
   VOSKOWN=      0    Vosko Wilk Nusair interpolation
   ROPT   =   -0.00010  -0.00010  -0.00010
 Ionic relaxation
   EDIFFG = -.1E-01   stopping-criterion for IOM
   NSW    =    100    number of steps for IOM
   NBLOCK =      1;   KBLOCK =    100    inner block; outer block 
   IBRION =      1    ionic relax: 0-MD 1-quasi-New 2-CG
   NFREE  =      0    steps in history (QN), initial steepest desc. (CG)
   ISIF   =      3    stress and relaxation
   IWAVPR =     11    prediction:  0-non 1-charg 2-wave 3-comb
   ISYM   =      0    0-nonsym 1-usesym 2-fastsym
   LCORR  =      T    Harris-Foulkes like correction to forces

   POTIM  = 0.5000    time-step for ionic-motion
   TEIN   =    0.0    initial temperature
   TEBEG  =    0.0;   TEEND  =   0.0 temperature during run
   SMASS  =  -3.00    Nose mass-parameter (am)
   estimated Nose-frequenzy (Omega)   =  0.10E-29 period in steps = 0.13E+47 mass=  -0.307E-26a.u.
   SCALEE = 1.0000    scale energy and forces
   NPACO  =    256;   APACO  = 10.0  distance and # of slots for P.C.
   PSTRESS=    0.0 pullay stress

  Mass of Ions in am
   POMASS =  47.88 16.00 19.00
  Ionic Valenz
   ZVAL   =  10.00  6.00  7.00
  Atomic Wigner-Seitz radii
   RWIGS  =  -1.00 -1.00 -1.00
  virtual crystal weights 
   VCA    =   1.00  1.00  1.00
   NELECT =     810.0000    total number of electrons
   NUPDOWN=      -1.0000    fix difference up-down

 DOS related values:
   EMIN   =  10.00;   EMAX   =-10.00  energy-range for DOS
   EFERMI =   0.00
   ISMEAR =     0;   SIGMA  =   0.01  broadening in eV -4-tet -1-fermi 0-gaus

 Electronic relaxation 2 (details)
   IALGO  =     38    algorithm
   LDIAG  =      T    sub-space diagonalisation (order eigenvalues)
   LSUBROT=      F    optimize rotation matrix (better conditioning)
   TURBO    =      0    0=normal 1=particle mesh
   IRESTART =      0    0=no restart 2=restart with 2 vectors
   NREBOOT  =      0    no. of reboots
   NMIN     =      0    reboot dimension
   EREF     =   0.00    reference energy to select bands
   IMIX   =      4    mixing-type and parameters
     AMIX     =   0.40;   BMIX     =  1.00
     AMIX_MAG =   1.60;   BMIX_MAG =  1.00
     AMIN     =   0.10
     WC   =   100.;   INIMIX=   1;  MIXPRE=   1;  MAXMIX= -45

 Intra band minimization:
   WEIMIN = 0.0010     energy-eigenvalue tresh-hold
   EBREAK =  0.46E-09  absolut break condition
   DEPER  =   0.30     relativ break condition  

   TIME   =   0.40     timestep for ELM

  volume/ion in A,a.u.               =      14.41        97.25
  Fermi-wavevector in a.u.,A,eV,Ry     =   1.316825  2.488438 23.592882  1.734028
  Thomas-Fermi vector in A             =   2.446910
 
 Write flags
   LWAVE        =      T    write WAVECAR
   LDOWNSAMPLE  =      F    k-point downsampling of WAVECAR
   LCHARG       =      T    write CHGCAR
   LVTOT        =      F    write LOCPOT, total local potential
   LVHAR        =      F    write LOCPOT, Hartree potential only
   LELF         =      F    write electronic localiz. function (ELF)
   LORBIT       =     11    0 simple, 1 ext, 2 COOP (PROOUT), +10 PAW based schemes


 Dipole corrections
   LMONO  =      F    monopole corrections only (constant potential shift)
   LDIPOL =      F    correct potential (dipole corrections)
   IDIPOL =      0    1-x, 2-y, 3-z, 4-all directions 
   EPSILON=  1.0000000 bulk dielectric constant

 LDA+U is selected, type is set to LDAUTYPE =  2
   angular momentum for each species LDAUL =     2   -1   -1
   U (eV)           for each species LDAUU =   4.2  0.0  0.0
   J (eV)           for each species LDAUJ =   0.0  0.0  0.0
 Exchange correlation treatment:
   GGA     =    PS    GGA type
   LEXCH   =    14    internal setting for exchange type
   LIBXC   =     F    Libxc                    
   VOSKOWN =     0    Vosko Wilk Nusair interpolation
   LHFCALC =     F    Hartree Fock is set to
   LHFONE  =     F    Hartree Fock one center treatment
   AEXX    =    0.0000 exact exchange contribution

 Linear response parameters
   LEPSILON=     F    determine dielectric tensor
   LRPA    =     F    only Hartree local field effects (RPA)
   LNABLA  =     F    use nabla operator in PAW spheres
   LVEL    =     F    velocity operator in full k-point grid
   CSHIFT  =0.1000    complex shift for real part using Kramers Kronig
   OMEGAMAX=  -1.0    maximum frequency
   DEG_THRESHOLD= 0.2000000E-02 threshold for treating states as degnerate
   RTIME   =   -0.100 relaxation time in fs
  (WPLASMAI=    0.000 imaginary part of plasma frequency in eV, 0.658/RTIME)
   DFIELD  = 0.0000000 0.0000000 0.0000000 field for delta impulse in time
 
  Optional k-point grid parameters
   LKPOINTS_OPT  =     F    use optional k-point grid
   KPOINTS_OPT_MODE=     1    mode for optional k-point grid
 
 Orbital magnetization related:
   ORBITALMAG=     F  switch on orbital magnetization
   LCHIMAG   =     F  perturbation theory with respect to B field
   DQ        =  0.001000  dq finite difference perturbation B field
   LLRAUG    =     F  two centre corrections for induced B field



--------------------------------------------------------------------------------------------------------


 quasi-Newton-method for relaxation of ions
 charge density and potential will be updated during run
 spin polarized calculation
 Variant of blocked Davidson
 Davidson routine will perform the subspace rotation
 perform sub-space diagonalisation
    after iterative eigenvector-optimisation
 modified Broyden-mixing scheme, WC =      100.0
 initial mixing is a Kerker type mixing with AMIX =  0.4000 and BMIX =      1.0000
 Hartree-type preconditioning will be used
 using additional bands          135
 real space projection scheme for non local part
 use partial core corrections
 calculate Harris-corrections to forces 
   (improved forces if not selfconsistent)
 use gradient corrections 
 use of overlap-Matrix (Vanderbilt PP)
 Gauss-broadening in eV      SIGMA  =   0.01


--------------------------------------------------------------------------------------------------------


  energy-cutoff  :      700.00
  volume of cell :     1556.41
      direct lattice vectors                 reciprocal lattice vectors
    11.587052268 -0.000853917  0.004722738     0.086303242  0.000006340 -0.000035195
    -0.000849469 11.600341760  0.006598320     0.000006373  0.086204385 -0.000048815
     0.004721643  0.006556650 11.579287675    -0.000035203 -0.000049125  0.086361140

  length of vectors
    11.587053262 11.600343667 11.579290494     0.086303249  0.086204399  0.086361162


 
 old parameters found on file WAVECAR:
  energy-cutoff  :      700.00
  volume of cell :     1556.41
      direct lattice vectors                 reciprocal lattice vectors
    11.587052268 -0.000853917  0.004722738     0.086303242  0.000006340 -0.000035195
    -0.000849469 11.600341760  0.006598320     0.000006373  0.086204385 -0.000048815
     0.004721643  0.006556650 11.579287675    -0.000035203 -0.000049125  0.086361140

  length of vectors

 
 k-points in units of 2pi/SCALE and weight: Title                                   
   0.00000000  0.00000000  0.00000000       0.037
   0.02876775  0.00000211 -0.00001173       0.074
   0.00000212  0.02873480 -0.00001627       0.074
   0.02876987  0.02873691 -0.00002800       0.074
  -0.02876562  0.02873268 -0.00000454       0.074
  -0.00001173 -0.00001638  0.02878705       0.074
   0.02875601 -0.00001426  0.02877532       0.074
  -0.02877948 -0.00001849  0.02879878       0.074
  -0.00000961  0.02871842  0.02877078       0.074
   0.02875814  0.02872053  0.02875904       0.074
  -0.02877736  0.02871631  0.02878251       0.074
  -0.00001386 -0.02875117  0.02880332       0.074
   0.02875389 -0.02874906  0.02879159       0.074
  -0.02878161 -0.02875328  0.02881505       0.074
 
 k-points in reciprocal lattice and weights: Title                                   
   0.00000000  0.00000000  0.00000000       0.037
   0.33333333 -0.00000000 -0.00000000       0.074
  -0.00000000  0.33333333  0.00000000       0.074
   0.33333333  0.33333333  0.00000000       0.074
  -0.33333333  0.33333333  0.00000000       0.074
   0.00000000  0.00000000  0.33333333       0.074
   0.33333333  0.00000000  0.33333333       0.074
  -0.33333333 -0.00000000  0.33333333       0.074
   0.00000000  0.33333333  0.33333333       0.074
   0.33333333  0.33333333  0.33333333       0.074
  -0.33333333  0.33333333  0.33333333       0.074
   0.00000000 -0.33333333  0.33333333       0.074
   0.33333333 -0.33333333  0.33333333       0.074
  -0.33333333 -0.33333333  0.33333333       0.074
 
 position of ions in fractional coordinates (direct lattice) 
   0.00987061  0.98886373  0.99975785
   0.00818483  0.98887059  0.34192978
   0.99180731  0.99202021  0.65605914
   0.01199073  0.33363139  0.99304858
   0.99853847  0.33346381  0.33440181
   0.99901118  0.33382645  0.68007441
   0.00840563  0.67562062  0.01020166
   0.99115185  0.67745561  0.32380295
   0.00859321  0.67841157  0.66793954
   0.32482045  0.00783521  0.01031881
   0.32273473  0.00045334  0.32160658
   0.33488806  0.98810922  0.66661762
   0.32595230  0.32199072  0.99227646
   0.34028042  0.34458943  0.33485636
   0.34199003  0.33253665  0.67760886
   0.32095081  0.66622546  0.00728503
   0.33348824  0.65961039  0.32229039
   0.32334782  0.67319892  0.66642063
   0.66641445  0.99283780  0.01042751
   0.66592713  0.98823540  0.32524655
   0.67863406  0.99027553  0.66797699
   0.66733296  0.33452494  0.98784180
   0.65309881  0.33272182  0.33291423
   0.65502985  0.33346040  0.67306529
   0.66646101  0.67876549  0.99888406
   0.67841365  0.67452103  0.34191351
   0.66575999  0.67641627  0.65506508
   0.99143251  0.83382705  0.99664509
   0.99605614  0.83369660  0.33325610
   0.00183289  0.83204039  0.67030063
   0.33721666  0.16734795  0.00102635
   0.32962526  0.49859250  0.33483167
   0.33778882  0.83432474  0.66720405
   0.67111531  0.83189114  0.99616747
   0.66743418  0.83468083  0.33192441
   0.66245498  0.83326379  0.67110832
   0.16599846  0.99771684  0.00440046
   0.16749542  0.00275088  0.32661013
   0.16455454  0.33584104  0.00401166
   0.16814477  0.66520416  0.98895713
   0.16856911  0.66302003  0.67031046
   0.50096345  0.33097025  0.33875190
   0.50102798  0.33342403  0.65845920
   0.83246718  0.00288277  0.66969892
   0.83315303  0.65711385  0.33142208
   0.00196058  0.00584578  0.50038354
   0.99665292  0.33384949  0.83223910
   0.00753985  0.66062630  0.16658230
   0.34490271  0.99196208  0.16723282
   0.33519094  0.33698608  0.83145690
   0.32886761  0.67323526  0.16728867
   0.66290454  0.00387853  0.16533421
   0.66761882  0.33373360  0.83437149
   0.66366582  0.66299874  0.50104622
   0.99444721  0.16902495  0.00566827
   0.99371717  0.17222620  0.32820252
   0.00589783  0.17004700  0.66547683
   0.99137863  0.49798553  0.00032585
   0.00979531  0.49463025  0.33986485
   0.99584922  0.49700522  0.65976212
   0.33266975  0.16969172  0.33185932
   0.32888678  0.16605241  0.66602646
   0.34017421  0.49906027  0.00516450
   0.33348489  0.49903173  0.65721436
   0.34128815  0.83220230  0.98724338
   0.33856376  0.83248237  0.34533438
   0.66246385  0.16918079  0.00067446
   0.67332259  0.16973660  0.33703964
   0.66686766  0.16838501  0.66219514
   0.66706284  0.49900728  0.00501328
   0.66379458  0.49698874  0.32684099
   0.67254469  0.49840139  0.66784295
   0.16927684  0.00359418  0.67086812
   0.16292546  0.32566202  0.32953640
   0.16516136  0.33738230  0.66195924
   0.16780169  0.66849513  0.34586523
   0.50141864  0.99788557  0.99051856
   0.50029974  0.00827731  0.34346850
   0.49989609  0.01013678  0.66523710
   0.50262787  0.33788937  0.00837980
   0.50159511  0.66391482  0.99793654
   0.50060469  0.66258562  0.32999858
   0.49942910  0.65641518  0.67130153
   0.83131045  0.00975086  0.99334287
   0.83200035  0.00899629  0.33483497
   0.83194830  0.33197602  0.00681945
   0.83486334  0.34027176  0.33398994
   0.83373439  0.32920876  0.66011078
   0.83072861  0.65794168  0.00120657
   0.83377183  0.66232628  0.66783912
   0.98792264  0.00694224  0.16647884
   0.00284349  0.01190064  0.83276191
   0.99441036  0.33857227  0.17019516
   0.00013776  0.32870701  0.49779414
   0.99915023  0.66016637  0.50135581
   0.99127942  0.65451256  0.83301164
   0.33279826  0.00489134  0.50126081
   0.33590448  0.00285674  0.83157685
   0.33395709  0.33397986  0.16848334
   0.32254829  0.32759384  0.49998020
   0.34068045  0.66675028  0.50028718
   0.34329749  0.65744994  0.83242886
   0.66582979  0.00514605  0.49984197
   0.66227292  0.01065178  0.83445115
   0.66963233  0.32953309  0.16734010
   0.67677489  0.33779145  0.49847385
   0.66170415  0.66243117  0.16439079
   0.66753993  0.65609695  0.83407207
 
 position of ions in cartesian coordinates  (Angst):
   0.11825177 11.47770382 11.58305517
   0.09561256 11.47347170  3.96586687
  11.49437817 11.51122807  7.60792725
   0.14334262  3.87673896 11.50105317
  11.57141309  3.86963409  3.87905084
  11.57852228  3.87610687  7.88169797
   0.09687067  7.83748976  0.12262560
  11.48548169  7.85999326  3.75855847
   0.10214750  7.87417823  7.73878110
   3.76375363  0.09068140  0.12107020
   3.74106229  0.00709198  3.72550234
   3.88267360 11.46648950  7.72705870
   3.78123797  3.74143007 11.49351858
   3.94413538  3.99926008  3.88127888
   3.96557328  3.86168964  7.85003727
   3.71834227  7.72821677  0.09026725
   3.86510709  7.65353438  3.73782044
   3.74922287  7.81343095  7.72264522
   7.72098492 11.51675705  0.13044145
   7.71682866 11.46543224  3.77578907
   7.86568111 11.49133482  7.74443691
   7.73680200  3.88651071 11.44386332
   7.56877933  3.86131191  3.86018945
   7.59275978  3.87210836  7.79891043
   7.72645830  7.87989194 11.57399210
   7.86185578  7.82633691  3.96676962
   7.71671421  7.85038638  7.59279443
  11.49177779  9.67836684 11.55062436
  11.54221982  9.67249999  3.86907332
   0.02369587  9.65634624  7.76710257
   3.90720974  1.94101222  0.01458118
   3.82054255  5.78575725  3.88195888
   3.91641828  9.68253835  7.73284806
   7.78024511  9.65618002 11.54356830
   7.73445296  9.68418923  3.85210789
   7.67836143  9.66997931  7.77958307
   1.92260607 11.57374338  0.05832141
   1.94231803  0.03390954  3.78272181
   1.90643566  3.89575663  0.04944532
   1.95240671  7.72293629 11.45660245
   1.95582087  7.69551003  7.76688852
   5.80600803  3.84116129  3.92705547
   5.80826321  3.87172215  7.62905472
   9.64900031  0.03712126  7.75858694
   9.65479440  7.62420684  3.84590222
   0.02507500  0.07109219  5.79413284
  11.55191540  3.87737387  9.64364577
   0.08759000  7.66457665  1.93329902
   3.99635270 11.50790112  1.94461105
   3.88751447  3.91431906  9.63148521
   3.81082422  7.81057512  1.94307896
   7.68188692  0.04551024  1.91760867
   7.73939026  3.87632436  9.66678254
   7.69173309  7.69373046  5.80926734
  11.52259497  1.95993518  0.07144637
  11.51565611  1.99918614  3.80618086
   0.07133620  1.97696157  7.70689756
  11.48673453  5.77595791  0.01174095
   0.11468331  5.74010000  3.93870284
  11.54164992  5.76890585  7.64755794
   3.85608457  1.97037377  3.84538535
   3.81383197  1.93035079  7.71476086
   3.94121676  5.78901311  0.06470077
   3.86678610  5.79296294  7.61494187
   3.95847806  9.66001269 11.43867800
   3.92387931  9.65905509  4.00581804
   7.67586278  1.96199377  0.01205474
   7.80327125  1.97063744  3.90697884
   7.73001400  1.95709600  7.67200849
   7.72889177  5.78811827  0.06449317
   7.69254352  5.76681534  3.79100005
   7.79554042  5.78543099  7.73961045
   1.96458414  0.04594779  7.76899815
   1.88910511  3.77981225  3.81871509
   1.91657223  3.91794918  7.66802262
   1.94539219  7.75689643  4.01007646
   5.81379322 11.58187997 11.47845183
   5.79861395  0.09784440  3.97953797
   5.79545447  0.12152493  7.70539950
   5.82372794  3.91925789  0.10163540
   5.81615671  7.70775364 11.56214390
   5.80152795  7.68795582  3.82788464
   5.78952311  7.61861548  7.77988341
   9.63711956  0.11891639 11.50619330
   9.64200489  0.10584501  3.88113906
   9.63957860  3.85036955  0.08508391
   9.67489307  3.94874567  3.87355363
   9.66336105  3.82255036  7.64972235
   9.62514257  7.63164683  0.02223587
   9.66354840  7.68687804  7.74140918
  11.44789143  0.08078028  1.93241787
   0.03686955  0.14350922  9.64288167
  11.52280078  3.92782086  1.97766907
   0.00366742  3.81637736  5.76627112
  11.57901239  7.66058952  5.81441781
  11.48938360  7.59718472  9.65468162
   3.85851341  0.05974360  5.80584714
   3.89606678  0.03830465  9.63067282
   3.87009004  3.87510006  1.95469798
   3.73946636  3.80320327  5.79309940
   3.94927803  7.73752043  5.79897760
   3.98117788  7.63180876  9.64489259
   7.71736030  0.06240472  5.79099241
   7.67772184  0.12846995  9.66554795
   7.75957504  3.82322184  1.94301597
   7.84389267  3.92118669  5.77739718
   7.66741404  7.68494079  1.91102425
   7.73820095  7.61584759  9.66544219
 


--------------------------------------------------------------------------------------------------------


 k-point   1 :   0.0000 0.0000 0.0000  plane waves:   65249
 k-point   2 :   0.3333-0.0000-0.0000  plane waves:   65393
 k-point   3 :  -0.0000 0.3333 0.0000  plane waves:   65404
 k-point   4 :   0.3333 0.3333 0.0000  plane waves:   65452
 k-point   5 :  -0.3333 0.3333 0.0000  plane waves:   65449
 k-point   6 :   0.0000 0.0000 0.3333  plane waves:   65388
 k-point   7 :   0.3333 0.0000 0.3333  plane waves:   65433
 k-point   8 :  -0.3333-0.0000 0.3333  plane waves:   65452
 k-point   9 :   0.0000 0.3333 0.3333  plane waves:   65431
 k-point  10 :   0.3333 0.3333 0.3333  plane waves:   65490
 k-point  11 :  -0.3333 0.3333 0.3333  plane waves:   65496
 k-point  12 :   0.0000-0.3333 0.3333  plane waves:   65450
 k-point  13 :   0.3333-0.3333 0.3333  plane waves:   65488
 k-point  14 :  -0.3333-0.3333 0.3333  plane waves:   65487

 maximum and minimum number of plane-waves per node :      8224     8134

 maximum number of plane-waves:     65496
 maximum index in each direction: 
   IXMAX=   25   IYMAX=   25   IZMAX=   24
   IXMIN=  -25   IYMIN=  -25   IZMIN=  -25


 real space projection operators:
  total allocation   :      54077.09 KBytes
  max/ min on nodes  :       7373.84       6159.62


 parallel 3D FFT for wavefunctions:
    minimum data exchange during FFTs selected (reduces bandwidth)
 parallel 3D FFT for charge:
    minimum data exchange during FFTs selected (reduces bandwidth)


 total amount of memory used by VASP MPI-rank0   297682. kBytes
=======================================================================

   base      :      30000. kBytes
   nonlr-proj:      25283. kBytes
   fftplans  :      18873. kBytes
   grid      :      21088. kBytes
   one-center:        435. kBytes
   wavefun   :     202003. kBytes
 
     INWAV:  cpu time     34.4344: real time     34.5469
 Broyden mixing: mesh for mixing (old mesh)
   NGX = 49   NGY = 51   NGZ = 49
  (NGX  =200   NGY  =200   NGZ  =200)
  gives a total of 122451 points

 charge density for first step will be calculated from the start-wavefunctions


--------------------------------------------------------------------------------------------------------


 Maximum index for non-local projection operator         1362
 Maximum index for augmentation-charges         4049 (set IRDMAX)


--------------------------------------------------------------------------------------------------------


 initial charge from wavefunction
 First call to EWALD:  gamma=   0.153
 Maximum number of real-space cells 3x 3x 3
 Maximum number of reciprocal cells 3x 3x 3

    FEWALD:  cpu time      0.0039: real time      0.0039


--------------------------------------- Iteration      1(   1)  ---------------------------------------


    POTLOK:  cpu time      0.1615: real time      0.1828
    SETDIJ:  cpu time      0.9182: real time      0.9284
     EDDAV:  cpu time    111.4769: real time    111.8219
       DOS:  cpu time      0.0033: real time      0.0060
    CHARGE:  cpu time      4.0317: real time      4.0416
    MIXING:  cpu time      0.0055: real time      0.0080
    --------------------------------------------
      LOOP:  cpu time    116.5970: real time    116.9887

 eigenvalue-minimisations  : 40460
 total energy-change (2. order) :-0.7210367E+03  (-0.9272741E-06)
 number of electron     810.0000010 magnetization       0.0000000
 augmentation part      209.1320214 magnetization      -0.0000000

 Broyden mixing:
  rms(total) = 0.64617E-03    rms(broyden)= 0.64127E-03
  rms(prec ) = 0.92417E-03
  weight for this iteration     100.00

 Free energy of the ion-electron system (eV)
  ---------------------------------------------------
  alpha Z        PSCENC =      2562.69120610
  Ewald energy   TEWEN  =    -43275.21980807
  -Hartree energ DENC   =    -27748.28069431
  -exchange      EXHF   =         0.00000000
  -V(xc)+E(xc)   XCENC  =      3779.48961471
  PAW double counting   =     60877.50319691   -61292.93778874
  entropy T*S    EENTRO =        -0.00000000
  eigenvalues    EBANDS =    -10894.72449475
  atomic energy  EATOM  =     75270.44210491
  Solvation  Ediel_sol  =         0.00000000
  ---------------------------------------------------
  free energy    TOTEN  =      -721.03666324 eV

  energy without entropy =     -721.03666324  energy(sigma->0) =     -721.03666324


--------------------------------------------------------------------------------------------------------




--------------------------------------- Iteration      1(   2)  ---------------------------------------


    POTLOK:  cpu time      0.1939: real time      0.2314
    SETDIJ:  cpu time      0.9188: real time      0.9212
     EDDAV:  cpu time     95.1630: real time     95.4038
       DOS:  cpu time      0.0066: real time      0.0066
    --------------------------------------------
      LOOP:  cpu time     96.2823: real time     96.5630

 eigenvalue-minimisations  : 33060
 total energy-change (2. order) : 0.9058422E-06  (-0.5505584E-06)
 number of electron     810.0000010 magnetization       0.0000000
 augmentation part      209.1320214 magnetization      -0.0000000

 Free energy of the ion-electron system (eV)
  ---------------------------------------------------
  alpha Z        PSCENC =      2562.69120610
  Ewald energy   TEWEN  =    -43275.21980807
  -Hartree energ DENC   =    -27748.31705215
  -exchange      EXHF   =         0.00000000
  -V(xc)+E(xc)   XCENC  =      3779.49217908
  PAW double counting   =     60877.53452408   -61292.97255474
  entropy T*S    EENTRO =        -0.00000000
  eigenvalues    EBANDS =    -10894.68726154
  atomic energy  EATOM  =     75270.44210491
  Solvation  Ediel_sol  =         0.00000000
  ---------------------------------------------------
  free energy    TOTEN  =      -721.03666234 eV

  energy without entropy =     -721.03666234  energy(sigma->0) =     -721.03666234


--------------------------------------------------------------------------------------------------------




 average (electrostatic) potential at core
  the test charge radii are     1.0397  0.7215  0.7167
  (the norm of the test charge is              1.0000)
       1 -58.5030       2 -58.1629       3 -58.2999       4 -58.9122       5 -60.4375
       6 -59.3862       7 -58.2625       8 -58.1297       9 -58.6939      10 -58.3109
      11 -58.4951      12 -59.2730      13 -58.4862      14 -59.0600      15 -58.8764
      16 -58.6653      17 -58.8760      18 -58.9217      19 -58.9320      20 -58.7107
      21 -58.6168      22 -59.4746      23 -59.4621      24 -59.1038      25 -59.2930
      26 -58.3058      27 -58.6251      28 -73.8503      29 -73.8456      30 -74.0223
      31 -73.8718      32 -74.2487      33 -74.3585      34 -74.4399      35 -74.0509
      36 -74.0350      37 -73.8549      38 -73.8226      39 -74.2318      40 -73.9695
      41 -74.1268      42 -74.6894      43 -74.3717      44 -73.9629      45 -73.7664
      46 -73.7307      47 -74.6228      48 -73.7215      49 -73.8827      50 -74.1648
      51 -74.1065      52 -74.1424      53 -74.6051      54 -73.9791      55 -78.8619
      56 -79.5074      57 -79.1280      58 -78.8828      59 -79.5107      60 -79.0988
      61 -78.8343      62 -78.9637      63 -78.7278      64 -79.0295      65 -78.7275
      66 -78.8506      67 -79.2568      68 -79.1489      69 -79.0252      70 -79.2105
      71 -79.1739      72 -79.0244      73 -78.9665      74 -79.7034      75 -79.2359
      76 -78.7828      77 -78.8370      78 -78.7502      79 -78.9850      80 -79.2043
      81 -78.9948      82 -78.7838      83 -78.8274      84 -78.8338      85 -78.7479
      86 -79.1941      87 -79.6813      88 -79.2242      89 -79.0101      90 -78.8358
      91 -78.6284      92 -78.6414      93 -79.7148      94 -79.6803      95 -78.7115
      96 -78.7069      97 -78.9719      98 -78.9641      99 -79.0602     100 -79.0557
     101 -78.8910     102 -78.9246     103 -78.8503     104 -78.8403     105 -79.3229
     106 -79.3830     107 -79.0143     108 -79.0285
 
 
 
 E-fermi :  -0.7016     XC(G=0):  -8.9937     alpha+bet : -7.6623

 Fermi energy:        -0.7015858486

 spin component 1

 k-point     1 :       0.0000    0.0000    0.0000
  band No.  band energies     occupation 
      1     -36.3136      1.00000
      2     -36.3097      1.00000
      3     -36.2951      1.00000
      4     -35.4277      1.00000
      5     -35.4229      1.00000
      6     -35.4138      1.00000
      7     -35.4062      1.00000
      8     -35.3412      1.00000
      9     -35.3372      1.00000
     10     -35.3248      1.00000
     11     -35.3026      1.00000
     12     -35.2536      1.00000
     13     -35.2370      1.00000
     14     -35.2290      1.00000
     15     -35.2134      1.00000
     16     -35.2025      1.00000
     17     -35.1259      1.00000
     18     -35.0882      1.00000
     19     -35.0788      1.00000
     20     -35.0387      1.00000
     21     -34.9952      1.00000
     22     -34.9817      1.00000
     23     -34.9634      1.00000
     24     -34.9003      1.00000
     25     -34.8978      1.00000
     26     -34.8943      1.00000
     27     -34.8907      1.00000
     28     -34.8632      1.00000
     29     -34.8528      1.00000
     30     -34.8327      1.00000
     31     -34.8219      1.00000
     32     -34.7922      1.00000
     33     -34.7893      1.00000
     34     -34.7816      1.00000
     35     -34.7776      1.00000
     36     -34.7643      1.00000
     37     -34.7500      1.00000
     38     -34.7385      1.00000
     39     -34.7163      1.00000
     40     -34.6849      1.00000
     41     -34.6663      1.00000
     42     -34.6417      1.00000
     43     -34.6253      1.00000
     44     -34.6211      1.00000
     45     -34.5981      1.00000
     46     -34.5831      1.00000
     47     -34.5681      1.00000
     48     -34.5587      1.00000
     49     -34.5563      1.00000
     50     -34.5534      1.00000
     51     -34.5304      1.00000
     52     -34.5264      1.00000
     53     -34.5072      1.00000
     54     -34.4907      1.00000
     55     -34.4821      1.00000
     56     -34.4752      1.00000
     57     -34.4318      1.00000
     58     -34.4085      1.00000
     59     -34.4082      1.00000
     60     -34.4044      1.00000
     61     -34.3725      1.00000
     62     -34.3696      1.00000
     63     -34.3671      1.00000
     64     -34.2646      1.00000
     65     -34.2515      1.00000
     66     -34.2454      1.00000
     67     -34.2313      1.00000
     68     -34.2204      1.00000
     69     -34.2099      1.00000
     70     -34.2080      1.00000
     71     -34.2074      1.00000
     72     -34.1984      1.00000
     73     -34.1964      1.00000
     74     -34.1741      1.00000
     75     -34.1610      1.00000
     76     -34.1578      1.00000
     77     -34.1050      1.00000
     78     -34.0802      1.00000
     79     -34.0601      1.00000
     80     -34.0501      1.00000
     81     -34.0322      1.00000
     82     -23.6710      1.00000
     83     -23.4187      1.00000
     84     -23.2895      1.00000
     85     -23.2488      1.00000
     86     -23.2248      1.00000
     87     -23.1736      1.00000
     88     -23.0932      1.00000
     89     -23.0417      1.00000
     90     -22.9847      1.00000
     91     -22.9597      1.00000
     92     -22.9375      1.00000
     93     -22.9318      1.00000
     94     -22.9158      1.00000
     95     -22.8947      1.00000
     96     -22.8767      1.00000
     97     -22.8278      1.00000
     98     -22.8167      1.00000
     99     -22.8005      1.00000
    100     -22.7631      1.00000
    101     -22.7611      1.00000
    102     -22.7371      1.00000
    103     -22.7228      1.00000
    104     -22.7050      1.00000
    105     -22.6903      1.00000
    106     -22.6702      1.00000
    107     -22.6533      1.00000
    108     -22.6465      1.00000
    109     -22.6406      1.00000
    110     -22.6343      1.00000
    111     -22.5698      1.00000
    112     -22.5646      1.00000
    113     -22.5461      1.00000
    114     -22.5422      1.00000
    115     -22.5127      1.00000
    116     -22.4990      1.00000
    117     -22.4855      1.00000
    118     -22.4763      1.00000
    119     -22.4748      1.00000
    120     -22.4642      1.00000
    121     -22.4469      1.00000
    122     -22.4365      1.00000
    123     -22.4104      1.00000
    124     -22.3997      1.00000
    125     -22.3905      1.00000
    126     -22.3491      1.00000
    127     -22.3466      1.00000
    128     -22.3288      1.00000
    129     -22.3159      1.00000
    130     -22.2995      1.00000
    131     -22.2842      1.00000
    132     -22.2537      1.00000
    133     -22.2294      1.00000
    134     -22.1999      1.00000
    135     -22.1449      1.00000
    136     -17.1458      1.00000
    137     -17.0891      1.00000
    138     -17.0793      1.00000
    139     -16.9104      1.00000
    140     -16.8562      1.00000
    141     -16.8389      1.00000
    142     -16.7428      1.00000
    143     -16.7353      1.00000
    144     -16.6661      1.00000
    145     -16.6422      1.00000
    146     -16.6091      1.00000
    147     -16.5962      1.00000
    148     -16.5686      1.00000
    149     -16.5385      1.00000
    150     -16.5253      1.00000
    151     -16.4942      1.00000
    152     -16.4703      1.00000
    153     -16.4342      1.00000
    154     -16.3902      1.00000
    155     -16.3479      1.00000
    156     -16.3396      1.00000
    157     -16.3012      1.00000
    158     -16.2618      1.00000
    159     -16.2265      1.00000
    160     -16.1752      1.00000
    161     -16.1409      1.00000
    162     -16.1219      1.00000
    163      -7.0221      1.00000
    164      -7.0097      1.00000
    165      -6.7769      1.00000
    166      -6.6522      1.00000
    167      -6.5555      1.00000
    168      -6.4923      1.00000
    169      -6.4441      1.00000
    170      -6.4069      1.00000
    171      -6.3878      1.00000
    172      -6.3561      1.00000
    173      -6.3259      1.00000
    174      -6.2915      1.00000
    175      -6.2794      1.00000
    176      -6.2512      1.00000
    177      -6.2416      1.00000
    178      -6.2128      1.00000
    179      -6.1824      1.00000
    180      -6.1679      1.00000
    181      -6.1229      1.00000
    182      -6.0884      1.00000
    183      -6.0655      1.00000
    184      -6.0552      1.00000
    185      -6.0317      1.00000
    186      -6.0103      1.00000
    187      -5.9767      1.00000
    188      -5.9485      1.00000
    189      -5.9065      1.00000
    190      -5.8967      1.00000
    191      -5.8866      1.00000
    192      -5.8667      1.00000
    193      -5.8530      1.00000
    194      -5.8167      1.00000
    195      -5.7955      1.00000
    196      -5.7464      1.00000
    197      -5.7259      1.00000
    198      -5.7057      1.00000
    199      -5.6968      1.00000
    200      -5.6770      1.00000
    201      -5.6655      1.00000
    202      -5.6389      1.00000
    203      -5.6189      1.00000
    204      -5.6173      1.00000
    205      -5.6005      1.00000
    206      -5.5913      1.00000
    207      -5.5748      1.00000
    208      -5.5645      1.00000
    209      -5.5342      1.00000
    210      -5.5136      1.00000
    211      -5.5020      1.00000
    212      -5.4798      1.00000
    213      -5.4377      1.00000
    214      -5.3961      1.00000
    215      -5.3729      1.00000
    216      -5.3467      1.00000
    217      -5.3350      1.00000
    218      -5.2983      1.00000
    219      -5.2773      1.00000
    220      -5.2698      1.00000
    221      -5.1893      1.00000
    222      -5.1734      1.00000
    223      -5.1557      1.00000
    224      -5.1014      1.00000
    225      -5.0758      1.00000
    226      -5.0735      1.00000
    227      -5.0385      1.00000
    228      -4.9917      1.00000
    229      -4.9798      1.00000
    230      -4.9630      1.00000
    231      -4.9300      1.00000
    232      -4.8881      1.00000
    233      -4.8633      1.00000
    234      -4.8231      1.00000
    235      -4.7853      1.00000
    236      -4.7542      1.00000
    237      -4.7239      1.00000
    238      -4.7140      1.00000
    239      -4.7008      1.00000
    240      -4.6722      1.00000
    241      -4.6698      1.00000
    242      -4.6545      1.00000
    243      -4.6455      1.00000
    244      -4.6312      1.00000
    245      -4.6210      1.00000
    246      -4.6081      1.00000
    247      -4.5797      1.00000
    248      -4.5739      1.00000
    249      -4.5682      1.00000
    250      -4.5347      1.00000
    251      -4.5098      1.00000
    252      -4.4877      1.00000
    253      -4.4765      1.00000
    254      -4.4424      1.00000
    255      -4.4094      1.00000
    256      -4.3511      1.00000
    257      -4.3142      1.00000
    258      -4.3033      1.00000
    259      -4.2806      1.00000
    260      -4.2671      1.00000
    261      -4.2417      1.00000
    262      -4.2288      1.00000
    263      -4.2149      1.00000
    264      -4.1986      1.00000
    265      -4.1726      1.00000
    266      -4.1579      1.00000
    267      -4.1317      1.00000
    268      -4.1211      1.00000
    269      -4.1123      1.00000
    270      -4.0867      1.00000
    271      -4.0680      1.00000
    272      -4.0544      1.00000
    273      -4.0425      1.00000
    274      -4.0283      1.00000
    275      -4.0018      1.00000
    276      -3.9864      1.00000
    277      -3.9689      1.00000
    278      -3.9460      1.00000
    279      -3.9276      1.00000
    280      -3.9203      1.00000
    281      -3.9048      1.00000
    282      -3.8983      1.00000
    283      -3.8804      1.00000
    284      -3.8634      1.00000
    285      -3.8499      1.00000
    286      -3.8291      1.00000
    287      -3.8206      1.00000
    288      -3.8164      1.00000
    289      -3.7983      1.00000
    290      -3.7906      1.00000
    291      -3.7846      1.00000
    292      -3.7641      1.00000
    293      -3.7520      1.00000
    294      -3.7376      1.00000
    295      -3.7079      1.00000
    296      -3.7036      1.00000
    297      -3.6766      1.00000
    298      -3.6682      1.00000
    299      -3.6598      1.00000
    300      -3.6473      1.00000
    301      -3.6357      1.00000
    302      -3.6048      1.00000
    303      -3.6007      1.00000
    304      -3.5830      1.00000
    305      -3.5785      1.00000
    306      -3.5584      1.00000
    307      -3.5482      1.00000
    308      -3.5444      1.00000
    309      -3.5270      1.00000
    310      -3.5200      1.00000
    311      -3.5048      1.00000
    312      -3.4947      1.00000
    313      -3.4805      1.00000
    314      -3.4762      1.00000
    315      -3.4614      1.00000
    316      -3.4500      1.00000
    317      -3.4346      1.00000
    318      -3.4226      1.00000
    319      -3.4141      1.00000
    320      -3.3845      1.00000
    321      -3.3762      1.00000
    322      -3.3648      1.00000
    323      -3.3516      1.00000
    324      -3.3459      1.00000
    325      -3.3410      1.00000
    326      -3.3355      1.00000
    327      -3.3163      1.00000
    328      -3.3043      1.00000
    329      -3.2862      1.00000
    330      -3.2718      1.00000
    331      -3.2581      1.00000
    332      -3.2508      1.00000
    333      -3.2357      1.00000
    334      -3.2111      1.00000
    335      -3.2001      1.00000
    336      -3.1875      1.00000
    337      -3.1834      1.00000
    338      -3.1566      1.00000
    339      -3.1440      1.00000
    340      -3.1178      1.00000
    341      -3.0943      1.00000
    342      -3.0857      1.00000
    343      -3.0643      1.00000
    344      -3.0625      1.00000
    345      -3.0516      1.00000
    346      -3.0484      1.00000
    347      -3.0104      1.00000
    348      -2.9877      1.00000
    349      -2.9795      1.00000
    350      -2.9667      1.00000
    351      -2.9225      1.00000
    352      -2.9085      1.00000
    353      -2.7697      1.00000
    354      -2.7567      1.00000
    355      -2.7101      1.00000
    356      -2.6875      1.00000
    357      -2.5551      1.00000
    358      -2.5541      1.00000
    359      -2.5128      1.00000
    360      -2.4826      1.00000
    361      -2.4526      1.00000
    362      -2.4399      1.00000
    363      -2.4328      1.00000
    364      -2.4076      1.00000
    365      -2.3913      1.00000
    366      -2.3686      1.00000
    367      -2.3471      1.00000
    368      -2.3153      1.00000
    369      -2.2840      1.00000
    370      -2.2307      1.00000
    371      -2.1980      1.00000
    372      -2.1917      1.00000
    373      -2.1646      1.00000
    374      -2.1623      1.00000
    375      -2.1486      1.00000
    376      -2.1173      1.00000
    377      -2.0406      1.00000
    378      -1.9934      1.00000
    379      -1.9885      1.00000
    380      -1.9699      1.00000
    381      -1.9466      1.00000
    382      -1.9138      1.00000
    383      -1.8896      1.00000
    384      -1.8646      1.00000
    385      -1.8060      1.00000
    386      -1.7997      1.00000
    387      -1.7902      1.00000
    388      -1.6888      1.00000
    389      -1.5382      1.00000
    390      -1.4952      1.00000
    391      -1.4747      1.00000
    392      -1.4625      1.00000
    393      -1.3899      1.00000
    394      -1.3257      1.00000
    395      -1.2989      1.00000
    396      -1.2408      1.00000
    397      -1.2241      1.00000
    398      -1.1016      1.00000
    399      -1.0692      1.00000
    400      -1.0200      1.00000
    401      -0.9591      1.00000
    402      -0.9270      1.00000
    403      -0.8376      1.00000
    404      -0.8241      1.00000
    405      -0.7613      1.00000
    406       1.5285      0.00000
    407       1.6309      0.00000
    408       1.6521      0.00000
    409       1.8916      0.00000
    410       1.9810      0.00000
    411       1.9929      0.00000
    412       2.0329      0.00000
    413       2.0655      0.00000
    414       2.1436      0.00000
    415       2.1983      0.00000
    416       2.2371      0.00000
    417       2.2407      0.00000
    418       2.2878      0.00000
    419       2.3772      0.00000
    420       2.4234      0.00000
    421       2.4566      0.00000
    422       2.4850      0.00000
    423       2.5292      0.00000
    424       2.5317      0.00000
    425       2.5730      0.00000
    426       2.6024      0.00000
    427       2.6096      0.00000
    428       2.6226      0.00000
    429       2.6274      0.00000
    430       2.6951      0.00000
    431       2.7009      0.00000
    432       2.7016      0.00000
    433       2.7384      0.00000
    434       2.7509      0.00000
    435       2.7586      0.00000
    436       2.7926      0.00000
    437       2.8656      0.00000
    438       2.8911      0.00000
    439       2.9059      0.00000
    440       2.9141      0.00000
    441       2.9317      0.00000
    442       2.9573      0.00000
    443       2.9616      0.00000
    444       2.9831      0.00000
    445       2.9930      0.00000
    446       3.0233      0.00000
    447       3.0302      0.00000
    448       3.0684      0.00000
    449       3.1218      0.00000
    450       3.1536      0.00000
    451       3.1787      0.00000
    452       3.2047      0.00000
    453       3.2273      0.00000
    454       3.2405      0.00000
    455       3.2537      0.00000
    456       3.2677      0.00000
    457       3.2784      0.00000
    458       3.2989      0.00000
    459       3.3526      0.00000
    460       3.3678      0.00000
    461       3.3714      0.00000
    462       3.4042      0.00000
    463       3.4154      0.00000
    464       3.4184      0.00000
    465       3.4312      0.00000
    466       3.4557      0.00000
    467       3.4713      0.00000
    468       3.4947      0.00000
    469       3.4997      0.00000
    470       3.5246      0.00000
    471       3.5804      0.00000
    472       3.5954      0.00000
    473       3.6247      0.00000
    474       3.6301      0.00000
    475       3.6407      0.00000
    476       3.6496      0.00000
    477       3.6701      0.00000
    478       3.6988      0.00000
    479       3.7126      0.00000
    480       3.7334      0.00000
    481       3.7379      0.00000
    482       3.7807      0.00000
    483       3.8034      0.00000
    484       3.8338      0.00000
    485       3.8515      0.00000
    486       3.8653      0.00000
    487       3.8935      0.00000
    488       3.9473      0.00000
    489       3.9501      0.00000
    490       3.9944      0.00000
    491       4.0024      0.00000
    492       4.0503      0.00000
    493       4.0876      0.00000
    494       4.1093      0.00000
    495       4.1452      0.00000
    496       4.1547      0.00000
    497       4.1817      0.00000
    498       4.2156      0.00000
    499       4.2370      0.00000
    500       4.2820      0.00000
    501       4.3010      0.00000
    502       4.3480      0.00000
    503       4.3712      0.00000
    504       4.4066      0.00000
    505       4.4582      0.00000
    506       4.4772      0.00000
    507       4.5052      0.00000
    508       4.5395      0.00000
    509       4.5849      0.00000
    510       4.6510      0.00000
    511       4.8199      0.00000
    512       4.8708      0.00000
    513       4.9838      0.00000
    514       5.1211      0.00000
    515       5.1779      0.00000
    516       5.2134      0.00000
    517       5.2693      0.00000
    518       5.3685      0.00000
    519       5.4427      0.00000
    520       5.4825      0.00000
    521       5.5134      0.00000
    522       5.5382      0.00000
    523       5.5946      0.00000
    524       5.6660      0.00000
    525       5.7026      0.00000
    526       5.7274      0.00000
[...]
      3.74963      7.81413      7.72343        -0.000817     -0.001811     -0.001040
      7.72169     11.51773      0.13058         0.000183      0.000471      0.000449
      7.71754     11.46637      3.77613         0.002440      0.002567      0.000595
      7.86662     11.49230      7.74522        -0.000638      0.001332     -0.002036
      7.73749      3.88693     11.44481         0.000365      0.002114      0.000095
      7.56930      3.86173      3.86061        -0.000293      0.000898      0.000416
      7.59343      3.87250      7.79964         0.000921      0.000725     -0.000903
      7.72724      7.88079     11.57503         0.001349     -0.004640     -0.000213
      7.86272      7.82711      3.96720        -0.000491     -0.000022     -0.002056
      7.71750      7.85120      7.59342         0.002468     -0.002256     -0.000138
     11.49273      9.67924     11.55167        -0.002193     -0.000585     -0.001283
     11.54291      9.67341      3.86963        -0.005681     -0.004120      0.000995
      0.02387      9.65717      7.76806         0.001400      0.005890      0.002871
      3.90738      1.94115      0.01472        -0.002935     -0.001057      0.001461
      3.82072      5.78619      3.88231        -0.002435      0.000864     -0.000885
      3.91707      9.68337      7.73372         0.003377     -0.005197      0.001533
      7.78116      9.65708     11.54443         0.001797      0.006918     -0.003481
      7.73540      9.68512      3.85252         0.002783     -0.001736     -0.000459
      7.67902      9.67086      7.78050        -0.001064      0.001304      0.001661
      1.92272     11.57443      0.05876         0.001103     -0.003682      0.004570
      1.94248      0.03376      3.78260         0.005494     -0.002471     -0.006573
      1.90649      3.89620      0.04936         0.004640      0.001299     -0.001991
      1.95270      7.72373     11.45734         0.001536      0.000671     -0.004037
      1.95617      7.69625      7.76766         0.005346      0.000737      0.000338
      5.80656      3.84149      3.92772        -0.001927     -0.000302      0.003501
      5.80893      3.87209      7.62949        -0.000202     -0.000206     -0.003494
      9.64996      0.03706      7.75928         0.001597     -0.001786     -0.000486
      9.65569      7.62457      3.84611         0.000952     -0.004019     -0.003190
      0.02540      0.07113      5.79467         0.003469     -0.000359      0.005852
     11.55287      3.87782      9.64455        -0.002053      0.000609      0.000272
      0.08807      7.66539      1.93358         0.006078      0.001989      0.001551
      3.99703     11.50859      1.94488         0.003895     -0.003774      0.000817
      3.88824      3.91472      9.63233         0.004041     -0.000192      0.003639
      3.81081      7.81145      1.94338        -0.005290      0.002371     -0.003009
      7.68261      0.04547      1.91769         0.000009     -0.001024     -0.004371
      7.73994      3.87677      9.66775        -0.003202      0.000553     -0.000747
      7.69255      7.69455      5.80983         0.001110      0.001977     -0.000626
     11.52390      1.96019      0.07179         0.003451      0.000257      0.003396
     11.51647      1.99948      3.80640        -0.003557      0.001078     -0.002485
      0.07160      1.97719      7.70770         0.002656     -0.001515      0.001608
     11.48770      5.77643      0.01198        -0.000929      0.000703      0.001834
      0.11522      5.74058      3.93941         0.006852      0.001999      0.004328
     11.54268      5.76938      7.64820        -0.000830     -0.001528     -0.001482
      3.85644      1.97048      3.84560        -0.000415     -0.002858     -0.002318
      3.81416      1.93059      7.71553        -0.000769      0.000532      0.000985
      3.94156      5.78953      0.06505        -0.000812      0.000410      0.003619
      3.86715      5.79337      7.61543        -0.000463     -0.000722     -0.002938
      3.95889      9.66083     11.43945        -0.000479     -0.001221     -0.003789
      3.92440      9.65991      4.00642         0.001710      0.001187      0.001798
      7.67632      1.96223      0.01210        -0.003451     -0.000676     -0.000117
      7.80405      1.97099      3.90743         0.000356      0.001576      0.000605
      7.73086      1.95739      7.67248         0.001370     -0.000203     -0.003218
      7.72960      5.78857      0.06467        -0.000168     -0.001046      0.000964
      7.69288      5.76738      3.79114        -0.005138      0.001668     -0.003345
      7.79654      5.78592      7.74025         0.003068     -0.000150     -0.001682
      1.96491      0.04577      7.76982         0.000448     -0.003518      0.001670
      1.88919      3.77985      3.81889        -0.000722     -0.003997     -0.002619
      1.91678      3.91844      7.66910         0.000071      0.001298      0.005542
      1.94566      7.75805      4.01095         0.000298      0.006153      0.005804
      5.81440     11.58284     11.47941         0.000311     -0.001282     -0.001645
      5.79926      0.09792      3.98003        -0.000779      0.000423      0.001172
      5.79602      0.12170      7.70597         0.000682      0.001183     -0.001885
      5.82424      3.91963      0.10182        -0.002002      0.000281      0.001268
      5.81683      7.70859     11.56326        -0.000839      0.001507      0.000423
      5.80204      7.68870      3.82809        -0.000448      0.000989     -0.002778
      5.79029      7.61906      7.78070         0.001858     -0.003200      0.000558
      9.63799      0.11925     11.50704        -0.001478      0.002852     -0.002683
      9.64285      0.10602      3.88172        -0.001749      0.001595      0.002440
      9.64033      3.85055      0.08515        -0.002135     -0.002050     -0.000665
      9.67584      3.94960      3.87399        -0.000163      0.006644      0.000290
      9.66436      3.82275      7.65048         0.000842     -0.002436      0.000473
      9.62602      7.63227      0.02268         0.000549      0.000197      0.004738
      9.66454      7.68781      7.74214        -0.000528      0.003373     -0.000930
     11.44853      0.08059      1.93265        -0.005481     -0.003137     -0.001353
      0.03708      0.14372      9.64383         0.001955      0.001499      0.000715
     11.52378      3.92849      1.97803        -0.000953      0.004314      0.000367
      0.00380      3.81651      5.76674         0.001551     -0.003119      0.000656
     11.58000      7.66152      5.81516        -0.001546      0.003520      0.000548
     11.49035      7.59774      9.65563        -0.001519     -0.001760      0.000702
      3.85861      0.05976      5.80640        -0.004038     -0.000588     -0.001094
      3.89646      0.03841      9.63151        -0.000499      0.000559      0.000438
      3.87049      3.87540      1.95499         0.000306     -0.000855     -0.000758
      3.73945      3.80341      5.79357        -0.004881     -0.001982     -0.000719
      3.94998      7.73821      5.79962         0.003814     -0.000164      0.001946
      3.98175      7.63209      9.64576         0.001640     -0.005721     -0.000336
      7.71816      0.06227      5.79151         0.000959     -0.002699      0.000947
      7.67846      0.12881      9.66629        -0.000187      0.003070     -0.001579
      7.76017      3.82346      1.94334        -0.001978     -0.001237      0.000778
      7.84477      3.92181      5.77787         0.001301      0.003302     -0.001065
      7.66803      7.68591      1.91119        -0.001251      0.004337     -0.000431
      7.73915      7.61644      9.66640         0.002428     -0.001389     -0.000874
 -----------------------------------------------------------------------------------
    total drift:                                0.005758     -0.003883      0.003949


--------------------------------------------------------------------------------------------------------



  FREE ENERGIE OF THE ION-ELECTRON SYSTEM (eV)
  ---------------------------------------------------
  free  energy   TOTEN  =      -721.03683660 eV

  energy  without entropy=     -721.03683660  energy(sigma->0) =     -721.03683660
 
 d Force = 0.4676584E-04[ 0.621E-05, 0.873E-04]  d Energy = 0.5367288E-04-0.691E-05
 d Force = 0.7007208E-01[ 0.695E-01, 0.706E-01]  d Ewald  = 0.3034621E+01-0.296E+01


--------------------------------------------------------------------------------------------------------


    POTLOK:  cpu time      1.0582: real time      1.0609


--------------------------------------------------------------------------------------------------------


 Quasi-Newton relaxation of ions (Broydens 2nd method)
  g(Force)  = 0.885E-04   g(Stress)= 0.283E-06

 retain information from N=  1 steps
 eigenvalues of (default step * inverse Hessian matrix)
  average eigenvalue of G=   0.4588
 eigenvalue spectrum of G is  0.4588


--------------------------------------------------------------------------------------------------------


  
 reached required accuracy - stopping structural energy minimisation
 writing wavefunctions
     LOOP+:  cpu time    650.4440: real time    661.3996
    4ORBIT:  cpu time      0.0000: real time      0.0000



 total charge

# of ion       s       p       d       tot
------------------------------------------
    1        0.320   6.448   1.791   8.558
    2        0.330   6.456   1.827   8.613
    3        0.327   6.456   1.808   8.592
    4        0.324   6.462   1.804   8.590
    5        0.317   6.492   1.685   8.494
    6        0.320   6.467   1.779   8.567
    7        0.326   6.453   1.804   8.583
    8        0.331   6.455   1.834   8.620
    9        0.321   6.455   1.784   8.560
   10        0.327   6.455   1.796   8.578
   11        0.319   6.450   1.803   8.572
   12        0.316   6.464   1.744   8.523
   13        0.326   6.456   1.799   8.581
   14        0.321   6.464   1.777   8.562
   15        0.321   6.458   1.788   8.567
   16        0.320   6.453   1.785   8.557
   17        0.319   6.457   1.754   8.530
   18        0.319   6.459   1.760   8.538
   19        0.321   6.461   1.764   8.545
   20        0.321   6.456   1.787   8.564
   21        0.321   6.454   1.800   8.575
   22        0.318   6.466   1.756   8.540
   23        0.320   6.467   1.777   8.565
   24        0.322   6.462   1.774   8.558
   25        0.318   6.464   1.756   8.538
   26        0.328   6.457   1.816   8.602
   27        0.321   6.454   1.800   8.575
   28        1.568   3.471   0.000   5.039
   29        1.569   3.483   0.000   5.053
   30        1.569   3.474   0.000   5.043
   31        1.569   3.471   0.000   5.040
   32        1.570   3.468   0.000   5.038
   33        1.570   3.468   0.000   5.038
   34        1.570   3.470   0.000   5.040
   35        1.569   3.475   0.000   5.044
   36        1.568   3.473   0.000   5.041
   37        1.568   3.473   0.000   5.041
   38        1.568   3.473   0.000   5.041
   39        1.570   3.472   0.000   5.042
   40        1.570   3.472   0.000   5.042
   41        1.569   3.470   0.000   5.039
   42        1.571   3.475   0.000   5.047
   43        1.570   3.473   0.000   5.043
   44        1.570   3.475   0.000   5.045
   45        1.569   3.475   0.000   5.043
   46        1.569   3.473   0.000   5.042
   47        1.571   3.477   0.000   5.048
   48        1.568   3.474   0.000   5.042
   49        1.570   3.474   0.000   5.044
   50        1.570   3.472   0.000   5.041
   51        1.569   3.470   0.000   5.039
   52        1.569   3.471   0.000   5.040
   53        1.570   3.472   0.000   5.042
   54        1.570   3.476   0.000   5.046
   55        1.730   4.376   0.000   6.106
   56        1.733   4.369   0.000   6.102
   57        1.731   4.379   0.000   6.110
   58        1.730   4.379   0.000   6.109
   59        1.733   4.369   0.000   6.102
   60        1.731   4.375   0.000   6.106
   61        1.729   4.380   0.000   6.109
   62        1.729   4.379   0.000   6.108
   63        1.729   4.377   0.000   6.106
   64        1.730   4.382   0.000   6.111
   65        1.729   4.376   0.000   6.105
   66        1.729   4.378   0.000   6.107
   67        1.730   4.381   0.000   6.111
   68        1.731   4.375   0.000   6.106
   69        1.730   4.379   0.000   6.109
   70        1.730   4.378   0.000   6.108
   71        1.731   4.379   0.000   6.110
   72        1.730   4.379   0.000   6.109
   73        1.730   4.378   0.000   6.108
   74        1.731   4.377   0.000   6.108
   75        1.730   4.379   0.000   6.109
   76        1.730   4.377   0.000   6.107
   77        1.730   4.379   0.000   6.109
   78        1.729   4.376   0.000   6.106
   79        1.730   4.376   0.000   6.106
   80        1.730   4.379   0.000   6.109
   81        1.730   4.376   0.000   6.107
   82        1.730   4.377   0.000   6.107
   83        1.730   4.379   0.000   6.109
   84        1.730   4.376   0.000   6.106
   85        1.729   4.379   0.000   6.109
   86        1.730   4.377   0.000   6.107
   87        1.731   4.374   0.000   6.106
   88        1.730   4.378   0.000   6.108
   89        1.730   4.378   0.000   6.108
   90        1.729   4.381   0.000   6.110
   91        1.729   4.378   0.000   6.107
   92        1.729   4.377   0.000   6.106
   93        1.731   4.379   0.000   6.110
   94        1.732   4.374   0.000   6.106
   95        1.729   4.378   0.000   6.107
   96        1.730   4.376   0.000   6.106
   97        1.730   4.377   0.000   6.107
   98        1.730   4.378   0.000   6.108
   99        1.730   4.381   0.000   6.111
  100        1.730   4.378   0.000   6.108
  101        1.730   4.378   0.000   6.108
  102        1.730   4.379   0.000   6.109
  103        1.729   4.381   0.000   6.110
  104        1.730   4.380   0.000   6.109
  105        1.730   4.378   0.000   6.108
  106        1.730   4.381   0.000   6.111
  107        1.730   4.378   0.000   6.108
  108        1.730   4.376   0.000   6.106
--------------------------------------------------
tot        144.492 504.560  48.153 697.205



 magnetization (x)

# of ion       s       p       d       tot
------------------------------------------
    1       -0.000  -0.000   0.000   0.000
    2        0.000   0.000  -0.000  -0.000
    3       -0.000   0.000  -0.000  -0.000
    4        0.000  -0.000  -0.000  -0.000
    5        0.000   0.000  -0.000   0.000
    6       -0.000  -0.000   0.000   0.000
    7       -0.000  -0.000   0.000   0.000
    8       -0.000  -0.000   0.000   0.000
    9       -0.000   0.000  -0.000  -0.000
   10        0.000   0.000  -0.000  -0.000
   11        0.000   0.000  -0.000  -0.000
   12        0.000   0.000  -0.000  -0.000
   13        0.000   0.000   0.000   0.000
   14        0.000   0.000   0.000   0.000
   15       -0.000   0.000   0.000   0.000
   16       -0.000   0.000   0.000   0.000
   17        0.000   0.000   0.000   0.000
   18       -0.000  -0.000   0.000   0.000
   19        0.000   0.000  -0.000  -0.000
   20       -0.000  -0.000   0.000   0.000
   21        0.000   0.000  -0.000  -0.000
   22        0.000  -0.000  -0.000   0.000
   23       -0.000  -0.000  -0.000  -0.000
   24        0.000   0.000   0.000   0.000
   25        0.000  -0.000  -0.000  -0.000
   26        0.000   0.000  -0.000  -0.000
   27       -0.000   0.000  -0.000  -0.000
   28       -0.000  -0.000   0.000  -0.000
   29       -0.000  -0.000   0.000  -0.000
   30        0.000  -0.000   0.000  -0.000
   31       -0.000   0.000   0.000   0.000
   32       -0.000  -0.000   0.000  -0.000
   33       -0.000   0.000   0.000  -0.000
   34        0.000   0.000   0.000   0.000
   35        0.000  -0.000   0.000  -0.000
   36        0.000   0.000   0.000   0.000
   37       -0.000   0.000   0.000   0.000
   38        0.000   0.000   0.000   0.000
   39       -0.000  -0.000   0.000  -0.000
   40        0.000   0.000   0.000   0.000
   41        0.000  -0.000   0.000  -0.000
   42        0.000   0.000   0.000   0.000
   43       -0.000  -0.000   0.000  -0.000
   44        0.000   0.000   0.000   0.000
   45       -0.000   0.000   0.000   0.000
   46       -0.000   0.000   0.000   0.000
   47        0.000   0.000   0.000   0.000
   48       -0.000  -0.000   0.000  -0.000
   49        0.000   0.000   0.000   0.000
   50       -0.000  -0.000   0.000  -0.000
   51       -0.000  -0.000   0.000  -0.000
   52       -0.000  -0.000   0.000  -0.000
   53       -0.000   0.000   0.000   0.000
   54        0.000   0.000   0.000   0.000
   55        0.000   0.000   0.000   0.000
   56        0.000  -0.000   0.000   0.000
   57        0.000  -0.000   0.000   0.000
   58        0.000   0.000   0.000   0.000
   59        0.000  -0.000   0.000   0.000
   60        0.000  -0.000   0.000   0.000
   61        0.000  -0.000   0.000  -0.000
   62       -0.000   0.000   0.000   0.000
   63       -0.000  -0.000   0.000  -0.000
   64       -0.000   0.000   0.000  -0.000
   65       -0.000   0.000   0.000   0.000
   66        0.000  -0.000   0.000   0.000
   67       -0.000   0.000   0.000  -0.000
   68        0.000  -0.000   0.000   0.000
   69       -0.000   0.000   0.000   0.000
   70       -0.000   0.000   0.000  -0.000
   71        0.000   0.000   0.000   0.000
   72       -0.000   0.000   0.000   0.000
   73        0.000   0.000   0.000   0.000
   74        0.000   0.000   0.000   0.000
   75        0.000  -0.000   0.000   0.000
   76        0.000  -0.000   0.000   0.000
   77       -0.000   0.000   0.000  -0.000
   78       -0.000   0.000   0.000  -0.000
   79       -0.000  -0.000   0.000  -0.000
   80       -0.000  -0.000   0.000  -0.000
   81        0.000   0.000   0.000   0.000
   82        0.000  -0.000   0.000   0.000
   83       -0.000   0.000   0.000  -0.000
   84       -0.000   0.000   0.000  -0.000
   85       -0.000  -0.000   0.000  -0.000
   86       -0.000   0.000   0.000   0.000
   87       -0.000   0.000   0.000  -0.000
   88        0.000  -0.000   0.000   0.000
   89        0.000   0.000   0.000   0.000
   90        0.000  -0.000   0.000   0.000
   91       -0.000  -0.000   0.000  -0.000
   92       -0.000  -0.000   0.000  -0.000
   93       -0.000   0.000   0.000  -0.000
   94        0.000  -0.000   0.000   0.000
   95        0.000   0.000   0.000   0.000
   96        0.000   0.000   0.000   0.000
   97       -0.000   0.000   0.000  -0.000
   98       -0.000   0.000   0.000  -0.000
   99        0.000   0.000   0.000   0.000
  100        0.000  -0.000   0.000   0.000
  101        0.000   0.000   0.000   0.000
  102        0.000  -0.000   0.000   0.000
  103       -0.000   0.000   0.000  -0.000
  104       -0.000   0.000   0.000  -0.000
  105       -0.000   0.000   0.000  -0.000
  106       -0.000   0.000   0.000  -0.000
  107        0.000   0.000   0.000   0.000
  108       -0.000   0.000   0.000   0.000
--------------------------------------------------
tot         -0.000   0.000  -0.000   0.000
 

 total amount of memory used by VASP MPI-rank0   297682. kBytes
=======================================================================

   base      :      30000. kBytes
   nonlr-proj:      25283. kBytes
   fftplans  :      18873. kBytes
   grid      :      21088. kBytes
   one-center:        435. kBytes
   wavefun   :     202003. kBytes
 
  
  
 General timing and accounting informations for this job:
 ========================================================
  
                  Total CPU time used (sec):     1836.526
                            User time (sec):     1806.420
                          System time (sec):       30.105
                         Elapsed time (sec):     1853.352
  
                   Maximum memory used (kb):      868200.
                   Average memory used (kb):          N/A
  
                          Minor page faults:       292680
                          Major page faults:           23
                 Voluntary context switches:        16039
