 vasp.5.4.4.18Apr17-6-g9f103f2a35 (build Jul 16 2019 12:12:28) complex          
  
 executed on             LinuxIFC date 2020.01.06  12:35:14
 running on   96 total cores
 distrk:  each k-point on   96 cores,    1 groups
 distr:  one band on NCORES_PER_BAND=   8 cores,   12 groups


--------------------------------------------------------------------------------------------------------


 INCAR:
 POTCAR:    PAW_PBE Li_sv 10Sep2004               
 POTCAR:    PAW_PBE Ti_pv 07Sep2000               
 POTCAR:    PAW_PBE O 08Apr2002                   
 POTCAR:    PAW_PBE F 08Apr2002                   
 POTCAR:    PAW_PBE Li_sv 10Sep2004               
   VRHFIN =Li: 1s2s2p                                                           
   LEXCH  = PE                                                                  
   EATOM  =   202.7858 eV,   14.9043 Ry                                         
                                                                                
   TITEL  = PAW_PBE Li_sv 10Sep2004                                             
   LULTRA =        F    use ultrasoft PP ?                                      
   IUNSCR =        0    unscreen: 0-lin 1-nonlin 2-no                           
   RPACOR =    0.000    partial core radius                                     
   POMASS =    7.010; ZVAL   =    3.000    mass and valenz                      
   RCORE  =    1.700    outmost cutoff radius                                   
   RWIGS  =    2.050; RWIGS  =    1.085    wigner-seitz radius (au A)           
   ENMAX  =  499.034; ENMIN  =  374.276 eV                                      
   ICORE  =        2    local potential                                         
   LCOR   =        T    correct aug charges                                     
   LPAW   =        T    paw PP                                                  
   EAUG   =  628.945                                                            
   RMAX   =    1.732    core radius for proj-oper                               
   RAUG   =    1.300    factor for augmentation sphere                          
   RDEP   =    1.728    radius for radial grids                                 
   RDEPT  =    1.329    core radius for aug-charge                              
                                                                                
   Atomic configuration                                                         
    4 entries                                                                   
     n  l   j            E        occ.                                          
     1  0  0.50       -51.8549   2.0000                                         
     2  0  0.50        -2.8742   1.0000                                         
     2  1  0.50        -1.3606   0.0000                                         
     3  2  1.50        -1.3606   0.0000                                         
   Description                                                                  
     l       E           TYP  RCUT    TYP  RCUT                                 
     0    -51.8548813     23  1.400                                             
     0     -2.8742052     23  1.700                                             
     1     -1.3605826     23  1.400                                             
     2     -1.3605826     23  1.400                                             
  local pseudopotential read in
  atomic valenz-charges read in
  non local Contribution for L=           0  read in
    real space projection operators read in
  non local Contribution for L=           0  read in
    real space projection operators read in
  non local Contribution for L=           1  read in
    real space projection operators read in
    PAW grid and wavefunctions read in
 
   number of l-projection  operators is LMAX  =           3
   number of lm-projection operators is LMMAX =           5
 
 POTCAR:    PAW_PBE Ti_pv 07Sep2000               
   VRHFIN =Ti: d3 s1                                                            
   LEXCH  = PE                                                                  
   EATOM  =  1042.5995 eV,   76.6289 Ry                                         
                                                                                
   TITEL  = PAW_PBE Ti_pv 07Sep2000                                             
   LULTRA =        F    use ultrasoft PP ?                                      
   IUNSCR =        1    unscreen: 0-lin 1-nonlin 2-no                           
   RPACOR =    2.200    partial core radius                                     
   POMASS =   47.880; ZVAL   =   10.000    mass and valenz                      
   RCORE  =    2.500    outmost cutoff radius                                   
   RWIGS  =    2.500; RWIGS  =    1.323    wigner-seitz radius (au A)           
   ENMAX  =  222.335; ENMIN  =  166.751 eV                                      
   RCLOC  =    1.701    cutoff for local pot                                    
   LCOR   =        T    correct aug charges                                     
   LPAW   =        T    paw PP                                                  
   EAUG   =  482.848                                                            
   DEXC   =    0.000                                                            
   RMAX   =    2.564    core radius for proj-oper                               
   RAUG   =    1.300    factor for augmentation sphere                          
   RDEP   =    2.538    radius for radial grids                                 
   RDEPT  =    1.952    core radius for aug-charge                              
                                                                                
   Atomic configuration                                                         
    8 entries                                                                   
     n  l   j            E        occ.                                          
     1  0  0.50     -4865.3608   2.0000                                         
     2  0  0.50      -533.1368   2.0000                                         
     2  1  1.50      -440.5031   6.0000                                         
     3  0  0.50       -59.3186   2.0000                                         
     3  1  1.50       -35.7012   6.0000                                         
     3  2  2.50        -1.9157   3.0000                                         
     4  0  0.50        -3.7291   1.0000                                         
     4  3  2.50        -1.3606   0.0000                                         
   Description                                                                  
     l       E           TYP  RCUT    TYP  RCUT                                 
     1    -35.7012140     23  2.300                                             
     1     -1.3605826     23  2.300                                             
     2     -1.9156996     23  2.500                                             
     2     -0.4063033     23  2.500                                             
     0     -3.7290856     23  2.500                                             
     0     20.4087390     23  2.500                                             
  local pseudopotential read in
  partial core-charges read in
  partial kinetic energy density read in
  atomic valenz-charges read in
  non local Contribution for L=           1  read in
    real space projection operators read in
  non local Contribution for L=           1  read in
    real space projection operators read in
  non local Contribution for L=           2  read in
    real space projection operators read in
  non local Contribution for L=           2  read in
    real space projection operators read in
  non local Contribution for L=           0  read in
    real space projection operators read in
  non local Contribution for L=           0  read in
    real space projection operators read in
    PAW grid and wavefunctions read in
 
   number of l-projection  operators is LMAX  =           6
   number of lm-projection operators is LMMAX =          18
 
 POTCAR:    PAW_PBE O 08Apr2002                   
   VRHFIN =O: s2p4                                                              
   LEXCH  = PE                                                                  
   EATOM  =   432.3788 eV,   31.7789 Ry                                         
                                                                                
   TITEL  = PAW_PBE O 08Apr2002                                                 
   LULTRA =        F    use ultrasoft PP ?                                      
   IUNSCR =        1    unscreen: 0-lin 1-nonlin 2-no                           
   RPACOR =    1.200    partial core radius                                     
   POMASS =   16.000; ZVAL   =    6.000    mass and valenz                      
   RCORE  =    1.520    outmost cutoff radius                                   
   RWIGS  =    1.550; RWIGS  =    0.820    wigner-seitz radius (au A)           
   ENMAX  =  400.000; ENMIN  =  300.000 eV                                      
   ICORE  =        2    local potential                                         
   LCOR   =        T    correct aug charges                                     
   LPAW   =        T    paw PP                                                  
   EAUG   =  605.392                                                            
   DEXC   =    0.000                                                            
   RMAX   =    1.553    core radius for proj-oper                               
   RAUG   =    1.300    factor for augmentation sphere                          
   RDEP   =    1.550    radius for radial grids                                 
   RDEPT  =    1.329    core radius for aug-charge                              
                                                                                
   Atomic configuration                                                         
    4 entries                                                                   
     n  l   j            E        occ.                                          
     1  0  0.50      -514.6923   2.0000                                         
     2  0  0.50       -23.9615   2.0000                                         
     2  1  0.50        -9.0305   4.0000                                         
     3  2  1.50        -9.5241   0.0000                                         
   Description                                                                  
     l       E           TYP  RCUT    TYP  RCUT                                 
     0    -23.9615318     23  1.200                                             
     0     -9.5240782     23  1.200                                             
     1     -9.0304911     23  1.520                                             
     1      8.1634956     23  1.520                                             
     2     -9.5240782      7  1.500                                             
  local pseudopotential read in
  partial core-charges read in
  partial kinetic energy density read in
  kinetic energy density of atom read in
  atomic valenz-charges read in
  non local Contribution for L=           0  read in
    real space projection operators read in
  non local Contribution for L=           0  read in
    real space projection operators read in
  non local Contribution for L=           1  read in
    real space projection operators read in
  non local Contribution for L=           1  read in
    real space projection operators read in
    PAW grid and wavefunctions read in
 
   number of l-projection  operators is LMAX  =           4
   number of lm-projection operators is LMMAX =           8
 
 POTCAR:    PAW_PBE F 08Apr2002                   
   VRHFIN =F: s2p5                                                              
   LEXCH  = PE                                                                  
   EATOM  =   659.6475 eV,   48.4827 Ry                                         
                                                                                
   TITEL  = PAW_PBE F 08Apr2002                                                 
   LULTRA =        F    use ultrasoft PP ?                                      
   IUNSCR =        1    unscreen: 0-lin 1-nonlin 2-no                           
   RPACOR =    1.200    partial core radius                                     
   POMASS =   18.998; ZVAL   =    7.000    mass and valenz                      
   RCORE  =    1.520    outmost cutoff radius                                   
   RWIGS  =    1.500; RWIGS  =    0.794    wigner-seitz radius (au A)           
   ENMAX  =  400.000; ENMIN  =  300.000 eV                                      
   ICORE  =        2    local potential                                         
   LCOR   =        T    correct aug charges                                     
   LPAW   =        T    paw PP                                                  
   EAUG   =  613.614                                                            
   RMAX   =    1.555    core radius for proj-oper                               
   RAUG   =    1.300    factor for augmentation sphere                          
   RDEP   =    1.539    radius for radial grids                                 
   RDEPT  =    1.299    core radius for aug-charge                              
                                                                                
   Atomic configuration                                                         
    4 entries                                                                   
     n  l   j            E        occ.                                          
     1  0  0.50      -663.3661   2.0000                                         
     2  0  0.50       -29.8995   2.0000                                         
     2  1  0.50       -11.1114   5.0000                                         
     3  2  1.50       -10.8847   0.0000                                         
   Description                                                                  
     l       E           TYP  RCUT    TYP  RCUT                                 
     0    -29.8995018     23  1.200                                             
     0     -9.5240782     23  1.200                                             
     1    -11.1113914     23  1.520                                             
     1      1.3605826     23  1.520                                             
     2    -10.8846608      7  1.500                                             
  local pseudopotential read in
  partial core-charges read in
  partial kinetic energy density read in
  atomic valenz-charges read in
  non local Contribution for L=           0  read in
    real space projection operators read in
  non local Contribution for L=           0  read in
    real space projection operators read in
  non local Contribution for L=           1  read in
    real space projection operators read in
  non local Contribution for L=           1  read in
    real space projection operators read in
    PAW grid and wavefunctions read in
 
   number of l-projection  operators is LMAX  =           4
   number of lm-projection operators is LMMAX =           8
 
 Optimization of the real space projectors (new method)

 maximal supplied QI-value         = 22.11
 optimisation between [QCUT,QGAM] = [ 11.28, 22.77] = [ 35.61,145.23] Ry 
 Optimized for a Real-space Cutoff    1.31 Angstroem

   l    n(q)    QCUT    max X(q) W(low)/X(q) W(high)/X(q)  e(spline) 
   0      9    11.276    10.506    0.19E-04    0.17E-04    0.32E-07
   0      9    11.276     8.367    0.38E-04    0.40E-04    0.65E-07
   1      8    11.276     8.983    0.55E-04    0.98E-04    0.20E-06
 Optimization of the real space projectors (new method)

 maximal supplied QI-value         = 15.12
 optimisation between [QCUT,QGAM] = [ 11.34, 22.83] = [ 36.00,145.93] Ry 
 Optimized for a Real-space Cutoff    1.56 Angstroem

   l    n(q)    QCUT    max X(q) W(low)/X(q) W(high)/X(q)  e(spline) 
   1     10    11.338     4.216    0.27E-04    0.12E-04    0.66E-07
   1     10    11.338     5.422    0.81E-04    0.24E-04    0.19E-06
   2     10    11.338    72.084    0.64E-04    0.21E-03    0.51E-06
   2     10    11.338    65.965    0.63E-04    0.21E-03    0.50E-06
   0     11    11.338    41.531    0.33E-04    0.54E-04    0.13E-06
   0     11    11.338    16.290    0.26E-04    0.41E-04    0.11E-06
 Optimization of the real space projectors (new method)

 maximal supplied QI-value         = 24.76
 optimisation between [QCUT,QGAM] = [ 11.39, 22.77] = [ 36.31,145.25] Ry 
 Optimized for a Real-space Cutoff    1.20 Angstroem

   l    n(q)    QCUT    max X(q) W(low)/X(q) W(high)/X(q)  e(spline) 
   0      8    11.387    20.381    0.89E-04    0.31E-03    0.27E-06
   0      8    11.387    15.268    0.93E-04    0.32E-03    0.29E-06
   1      8    11.387     5.964    0.53E-04    0.28E-03    0.29E-06
   1      8    11.387     5.382    0.37E-04    0.22E-03    0.26E-06
 Optimization of the real space projectors (new method)

 maximal supplied QI-value         = 24.76
 optimisation between [QCUT,QGAM] = [ 11.39, 22.77] = [ 36.31,145.25] Ry 
 Optimized for a Real-space Cutoff    1.20 Angstroem

   l    n(q)    QCUT    max X(q) W(low)/X(q) W(high)/X(q)  e(spline) 
   0      8    11.387    14.049    0.69E-04    0.23E-03    0.18E-06
   0      8    11.387     8.945    0.88E-04    0.30E-03    0.26E-06
   1      8    11.387     7.086    0.62E-04    0.27E-03    0.27E-06
   1      8    11.387     6.747    0.46E-04    0.23E-03    0.25E-06

 ----------------------------------------------------------------------------- 
|                                                                             |
|  ADVICE TO THIS USER RUNNING 'VASP/VAMP'   (HEAR YOUR MASTER'S VOICE ...):  |
|                                                                             |
|      You enforced a specific xc-type in the INCAR file,                     |
|      a different type was found on the POTCAR file                          |
|          I HOPE YOU KNOW, WHAT YOU ARE  DOING                               |
|                                                                             |
 ----------------------------------------------------------------------------- 

  PAW_PBE Li_sv 10Sep2004               :
 energy of atom  1       EATOM= -202.7858
 kinetic energy error for atom=    0.0143 (will be added to EATOM!!)
  PAW_PBE Ti_pv 07Sep2000               :
 energy of atom  2       EATOM=-1042.5995
 kinetic energy error for atom=    0.0024 (will be added to EATOM!!)
  PAW_PBE O 08Apr2002                   :
 energy of atom  3       EATOM= -432.3788
 kinetic energy error for atom=    0.0224 (will be added to EATOM!!)
  PAW_PBE F 08Apr2002                   :
 energy of atom  4       EATOM= -659.6475
 kinetic energy error for atom=    0.0354 (will be added to EATOM!!)
 
 
 POSCAR: config 36                               
  positions in direct lattice
  velocities in cartesian coordinates
 exchange correlation table for  LEXCH =       14
   RHO(1)=    0.500       N(1)  =     2000
   RHO(2)=  100.500       N(2)  =     4000

 VTST: version 3.2, (02/03/18)

 CHAIN: initializing optimizer
 
 OPT: Using VASP QUASI-newton optimizer
 CHAIN: Read ICHAIN            0
 
 POSCAR: config 36                               
  positions in direct lattice
  velocities in cartesian coordinates
 


--------------------------------------------------------------------------------------------------------


 ion  position               nearest neighbor table
   1  0.577  0.143  0.877- 216 1.94 115 2.01 150 2.09  31 2.83
   2  0.996  0.995  0.994- 118 1.86  68 1.88 103 1.90 171 2.02 212 2.04 130 2.05
   3  1.000  0.992  0.493- 119 1.81  67 1.83 172 1.94 193 1.96 131 2.01 213 2.08
   4  0.006  0.495  0.998-  89 1.83 117 1.86 138 1.93 132 1.98 214 2.01 194 2.03
   5  0.994  0.503  0.507-  66 1.82 104 1.84 215 1.93 223 2.00 173 2.01 137 2.03
   6  0.495  0.991  0.001- 121 1.82 101 1.82 140 1.96 133 1.97 174 2.03 216 2.08
   7  0.501  0.009  0.498- 112 1.77 191 1.91 134 1.92 139 1.93 175 1.94 225 2.02
   8  0.505  0.497  0.996-  70 1.87  90 1.88 120 1.89 217 2.03 192 2.03 135 2.04
   9  0.492  0.499  0.495- 102 1.81  69 1.86 224 1.98 218 1.99 136 2.00 176 2.06
  10  0.007  0.003  0.256-  91 1.83  67 1.86 219 1.94 227 1.97 130 2.00 197 2.06
  11  0.003  0.007  0.757-  68 1.80 113 1.84 177 1.94 198 1.99 228 2.04 131 2.06
  12  0.994  0.493  0.252- 107 1.82 122 1.86 137 1.93 132 1.96 220 2.00 178 2.02
  13  0.993  0.499  0.742- 108 1.82  66 1.83 226 1.93 221 1.97 138 2.02 179 2.04
  14  0.506  0.009  0.250- 114 1.82  92 1.83 133 1.94 139 1.97 195 2.00 231 2.05
  15  0.495  0.006  0.753- 115 1.78 105 1.83 140 1.98 134 2.01 232 2.04 180 2.04
  16  0.493  0.496  0.257-  69 1.82 106 1.84 229 1.97 222 2.01 135 2.02 181 2.04
  17  0.501  0.506  0.758-  70 1.82 116 1.86 182 1.95 196 1.97 230 1.98 136 2.08
  18  0.996  0.257  0.002- 117 1.82 110 1.88 141 1.96 146 1.96 183 2.00 212 2.02
  19  0.998  0.248  0.491-  74 1.78 213 1.91 184 1.93 202 1.93 223 1.94 142 2.01
  20  0.999  0.758  0.006- 118 1.81  71 1.85 203 1.95 185 1.97 148 2.04 214 2.06
  21  0.997  0.756  0.506- 119 1.83  72 1.83 204 1.94 186 1.96 215 2.02 147 2.02
  22  0.494  0.261  0.004- 120 1.78 109 1.83 150 1.93 143 1.97 187 2.08 216 2.17
  23  0.508  0.245  0.496-  93 1.81 144 1.89 112 1.91 149 1.95 224 1.98 199 2.00
  24  0.508  0.755  1.000-  94 1.82 121 1.84 152 1.93 145 1.98 217 1.99 200 2.02
  25  0.507  0.753  0.509-  73 1.78  95 1.83 218 1.96 225 1.96 201 2.01 151 2.07
  26  0.999  0.258  0.255- 122 1.79  74 1.88 209 1.95 188 1.96 141 1.99 219 2.02
  27  0.005  0.243  0.747- 113 1.80  96 1.84 142 1.96 146 1.97 210 2.01 226 2.05
  28  0.007  0.748  0.243-  71 1.82  97 1.83 220 1.95 227 1.98 147 2.04 211 2.06
  29  0.993  0.750  0.743- 111 1.83  72 1.84 228 1.93 221 1.97 189 2.02 148 2.02
  30  0.508  0.241  0.252-  98 1.82 114 1.83 143 1.95 149 1.95 229 2.02 205 2.02
  31  0.502  0.249  0.748-  99 1.95 206 1.99 144 2.01 150 2.02 115 2.03 230 2.04   1 2.83
  32  0.507  0.751  0.252- 100 1.79 151 1.92 145 1.94 231 1.94 222 1.94 207 2.00
  33  0.502  0.744  0.744- 116 1.81  73 1.84 190 1.94 208 1.97 232 2.02 152 2.04
  34  0.257  0.999  0.006-  75 1.84 101 1.87 246 1.93 233 1.96 171 2.01 157 2.04
  35  0.251  0.994  0.507-  76 1.83 128 1.83 172 1.95 191 1.99 234 2.02 156 2.04
  36  0.244  0.508  0.998- 123 1.82  89 1.84 159 1.93 153 1.97 192 2.02 245 2.04
  37  0.254  0.494  0.507-  77 1.85 102 1.88 127 1.88 173 2.03 235 2.04 158 2.05
  38  0.758  0.999  0.994- 103 1.79  81 1.87 249 1.95 236 1.96 154 2.04 174 2.06
  39  0.750  0.007  0.495- 124 1.83  80 1.83 193 1.93 175 1.99 155 1.99 250 2.03
  40  0.742  0.500  0.005-  90 1.80  78 1.87 237 1.95 247 1.96 161 2.03 194 2.05
  41  0.755  0.498  0.506-  79 1.84 104 1.85 248 1.95 238 1.98 176 2.01 160 2.03
  42  0.245  0.002  0.244-  75 1.84  91 1.84 239 1.93 252 1.96 156 2.03 195 2.06
  43  0.259  0.999  0.745- 105 1.82  76 1.85 253 1.93 240 1.97 157 2.02 177 2.04
  44  0.255  0.492  0.252- 106 1.83 129 1.83 158 1.93 153 1.97 241 2.04 178 2.04
  45  0.247  0.506  0.741-  77 1.79 125 1.83 179 1.95 196 1.97 251 2.03 159 2.06
  46  0.745  0.000  0.256-  92 1.85  80 1.85 256 1.94 242 1.96 197 2.00 154 2.00
  47  0.748  0.006  0.756- 126 1.81  81 1.84 180 1.95 198 1.96 257 2.04 155 2.06
  48  0.756  0.498  0.243-  78 1.81 107 1.85 243 1.95 254 1.96 181 2.02 160 2.04
  49  0.757  0.499  0.743- 108 1.83  79 1.84 255 1.93 244 1.98 182 2.03 161 2.04
  50  0.257  0.251  0.006- 109 1.84  82 1.85 245 1.93 233 1.97 168 2.02 183 2.04
  51  0.253  0.257  0.505- 127 1.81  83 1.85 199 1.96 184 2.01 167 2.04 234 2.05
  52  0.252  0.742  0.994- 123 1.82  86 1.83 200 1.94 185 1.96 162 2.03 246 2.04
  53  0.252  0.756  0.493-  85 1.83 128 1.86 201 1.95 186 1.97 235 2.00 163 2.04
  54  0.758  0.251  0.008- 110 1.80  84 1.86 247 1.94 236 1.94 170 2.02 187 2.07
  55  0.742  0.243  0.497- 124 1.82  93 1.83 169 1.94 164 1.96 248 2.02 202 2.04
  56  0.742  0.748  0.994-  94 1.83  88 1.83 237 1.94 249 1.95 203 2.01 165 2.04
  57  0.742  0.752  0.494-  95 1.81  87 1.86 250 1.94 238 1.96 166 2.01 204 2.03
  58  0.251  0.258  0.244- 129 1.82  82 1.83 205 1.96 188 1.99 167 2.02 239 2.04
  59  0.241  0.252  0.744-  96 1.83  83 1.84 251 1.94 240 1.97 206 2.04 168 2.04
  60  0.244  0.748  0.256-  97 1.83  85 1.84 241 1.94 252 1.98 162 2.03 207 2.06
  61  0.248  0.742  0.757- 125 1.81  86 1.84 189 1.94 208 1.97 163 2.04 253 2.04
  62  0.742  0.251  0.243-  84 1.80  98 1.83 254 1.93 242 1.95 209 2.04 169 2.06
  63  0.742  0.243  0.751-  99 1.78 126 1.85 170 1.96 164 2.00 255 2.04 210 2.04
  64  0.746  0.750  0.257-  87 1.81 100 1.90 243 1.94 256 1.95 211 1.98 165 2.02
  65  0.758  0.750  0.757- 111 1.82  88 1.84 257 1.93 244 1.97 190 2.03 166 2.05
  66  0.008  0.502  0.625-   5 1.82  13 1.83
  67  0.998  0.006  0.376-   3 1.83  10 1.86
  68  0.004  0.002  0.873-  11 1.80   2 1.88
  69  0.500  0.490  0.375-  16 1.82   9 1.86
  70  0.494  0.496  0.875-  17 1.82   8 1.87
  71  0.999  0.746  0.126-  28 1.82  20 1.85
  72  0.002  0.746  0.624-  21 1.83  29 1.84
  73  0.502  0.750  0.624-  25 1.78  33 1.84
  74  0.992  0.247  0.376-  19 1.78  26 1.88
  75  0.258  0.003  0.125-  42 1.84  34 1.84
  76  0.257  0.004  0.625-  35 1.83  43 1.85
  77  0.239  0.495  0.626-  45 1.79  37 1.85
  78  0.750  0.490  0.126-  48 1.81  40 1.87
  79  0.746  0.493  0.624-  49 1.84  41 1.84
  80  0.748  1.000  0.376-  39 1.83  46 1.85
  81  0.741  0.001  0.874-  47 1.84  38 1.87
  82  0.244  0.249  0.125-  58 1.83  50 1.85
  83  0.250  0.250  0.625-  59 1.84  51 1.85
  84  0.739  0.259  0.126-  62 1.80  54 1.86
  85  0.255  0.746  0.375-  53 1.83  60 1.84
  86  0.252  0.753  0.875-  52 1.83  61 1.84
  87  0.753  0.751  0.374-  64 1.81  57 1.86
  88  0.749  0.750  0.876-  56 1.83  65 1.84
  89  0.125  0.504  0.995-   4 1.83  36 1.84
  90  0.626  0.509  0.998-  40 1.80   8 1.88
  91  0.126  0.004  0.249-  10 1.83  42 1.84
  92  0.625  0.003  0.247-  14 1.83  46 1.85
  93  0.624  0.259  0.489-  23 1.81  55 1.83
  94  0.625  0.740  0.003-  24 1.82  56 1.83
  95  0.625  0.764  0.496-  57 1.81  25 1.83
  96  0.123  0.256  0.751-  59 1.83  27 1.84
  97  0.126  0.750  0.252-  60 1.83  28 1.83
  98  0.625  0.244  0.264-  30 1.82  62 1.83
  99  0.628  0.254  0.758-  63 1.78  31 1.95
 100  0.623  0.752  0.251-  32 1.79  64 1.90
 101  0.377  1.000  0.991-   6 1.82  34 1.87
 102  0.375  0.506  0.504-   9 1.81  37 1.88
 103  0.874  0.000  0.997-  38 1.79   2 1.90
 104  0.875  0.504  0.500-   5 1.84  41 1.85
 105  0.376  0.002  0.759-  43 1.82  15 1.83
 106  0.374  0.495  0.249-  44 1.83  16 1.84
 107  0.876  0.496  0.252-  12 1.82  48 1.85
 108  0.875  0.511  0.746-  13 1.82  49 1.83
 109  0.376  0.248  0.007-  22 1.83  50 1.84
 110  0.875  0.249  0.009-  54 1.80  18 1.88
 111  0.875  0.741  0.750-  65 1.82  29 1.83
 112  0.512  0.122  0.485-   7 1.77  23 1.91
 113  1.000  0.126  0.744-  27 1.80  11 1.84
 114  0.494  0.125  0.268-  14 1.82  30 1.83
 115  0.513  0.120  0.766-  15 1.78   1 2.01  31 2.03
 116  0.504  0.627  0.753-  33 1.81  17 1.86
 117  0.002  0.375  0.004-  18 1.82   4 1.86
 118  0.003  0.875  0.002-  20 1.81   2 1.86
 119  0.994  0.875  0.498-   3 1.81  21 1.83
 120  0.505  0.375  0.013-  22 1.78   8 1.89
 121  0.505  0.874  0.011-   6 1.82  24 1.84
 122  0.008  0.374  0.248-  26 1.79  12 1.86
 123  0.257  0.625  0.002-  52 1.82  36 1.82
 124  0.740  0.125  0.505-  55 1.82  39 1.83
 125  0.244  0.625  0.750-  61 1.81  45 1.83
 126  0.747  0.123  0.745-  47 1.81  63 1.85
 127  0.253  0.373  0.493-  51 1.81  37 1.88
 128  0.254  0.876  0.500-  35 1.83  53 1.86
 129  0.241  0.374  0.256-  58 1.82  44 1.83
 130  0.998  0.002  0.127-  10 2.00   2 2.05
 131  0.001  0.998  0.624-   3 2.01  11 2.06
 132  0.001  0.508  0.125-  12 1.96   4 1.98
 133  0.492  0.016  0.126-  14 1.94   6 1.97
 134  0.495  0.006  0.622-   7 1.92  15 2.01
 135  0.503  0.511  0.128-  16 2.02   8 2.04
 136  0.508  0.507  0.624-   9 2.00  17 2.08
 137  0.003  0.496  0.376-  12 1.93   5 2.03
 138  0.995  0.498  0.873-   4 1.93  13 2.02
 139  0.507  0.983  0.376-   7 1.93  14 1.97
 140  0.522  0.989  0.877-   6 1.96  15 1.98
 141  0.010  0.245  0.127-  18 1.96  26 1.99
 142  0.000  0.258  0.621-  27 1.96  19 2.01
 143  0.513  0.231  0.126-  30 1.95  22 1.97
 144  0.500  0.237  0.618-  23 1.89  31 2.01
 145  0.496  0.741  0.127-  32 1.94  24 1.98
 146  0.993  0.250  0.875-  18 1.96  27 1.97
 147  0.994  0.750  0.375-  21 2.02  28 2.04
 148  0.002  0.750  0.874-  29 2.02  20 2.04
 149  0.488  0.269  0.374-  23 1.95  30 1.95
 150  0.500  0.254  0.879-  22 1.93  31 2.02   1 2.09
 151  0.493  0.759  0.375-  32 1.92  25 2.07
 152  0.499  0.755  0.875-  24 1.93  33 2.04
 153  0.245  0.494  0.125-  44 1.97  36 1.97
 154  0.752  0.002  0.126-  46 2.00  38 2.04
 155  0.751  0.994  0.623-  39 1.99  47 2.06
 156  0.251  0.001  0.375-  42 2.03  35 2.04
 157  0.242  0.995  0.875-  43 2.02  34 2.04
 158  0.247  0.511  0.375-  44 1.93  37 2.05
 159  0.259  0.498  0.874-  36 1.93  45 2.06
 160  0.747  0.506  0.375-  41 2.03  48 2.04
 161  0.753  0.506  0.874-  40 2.03  49 2.04
 162  0.252  0.754  0.125-  60 2.03  52 2.03
 163  0.249  0.751  0.625-  61 2.04  53 2.04
 164  0.747  0.261  0.623-  55 1.96  63 2.00
 165  0.752  0.749  0.126-  64 2.02  56 2.04
 166  0.748  0.750  0.624-  57 2.01  65 2.05
 167  0.254  0.244  0.374-  58 2.02  51 2.04
 168  0.252  0.251  0.876-  50 2.02  59 2.04
 169  0.764  0.243  0.374-  55 1.94  62 2.06
 170  0.758  0.242  0.877-  63 1.96  54 2.02
 171  0.127  0.003  0.005-  34 2.01   2 2.02
 172  0.125  0.002  0.501-   3 1.94  35 1.95
 173  0.123  0.498  0.492-   5 2.01  37 2.03
 174  0.625  0.003  0.011-   6 2.03  38 2.06
 175  0.624  0.983  0.506-   7 1.94  39 1.99
 176  0.625  0.492  0.497-  41 2.01   9 2.06
 177  0.127  0.996  0.744-  11 1.94  43 2.04
 178  0.124  0.508  0.249-  12 2.02  44 2.04
 179  0.123  0.490  0.763-  45 1.95  13 2.04
 180  0.625  0.987  0.737-  47 1.95  15 2.04
 181  0.625  0.501  0.250-  48 2.02  16 2.04
 182  0.627  0.493  0.756-  17 1.95  49 2.03
 183  0.125  0.248  0.994-  18 2.00  50 2.04
 184  0.123  0.249  0.496-  19 1.93  51 2.01
 185  0.126  0.744  0.001-  52 1.96  20 1.97
 186  0.124  0.752  0.496-  21 1.96  53 1.97
 187  0.626  0.243  0.987-  54 2.07  22 2.08
 188  0.124  0.236  0.258-  26 1.96  58 1.99
 189  0.123  0.758  0.751-  61 1.94  29 2.02
 190  0.627  0.758  0.751-  33 1.94  65 2.03
 191  0.378  0.009  0.492-   7 1.91  35 1.99
 192  0.374  0.494  0.008-  36 2.02   8 2.03
 193  0.875  0.010  0.505-  39 1.93   3 1.96
 194  0.875  0.496  1.000-   4 2.03  40 2.05
 195  0.378  0.995  0.257-  14 2.00  42 2.06
 196  0.374  0.504  0.741-  45 1.97  17 1.97
 197  0.874  0.998  0.249-  46 2.00  10 2.06
 198  0.875  0.997  0.747-  47 1.96  11 1.99
 199  0.379  0.241  0.498-  51 1.96  23 2.00
 200  0.377  0.757  0.002-  52 1.94  24 2.02
 201  0.377  0.742  0.502-  53 1.95  25 2.01
 202  0.874  0.246  0.507-  19 1.93  55 2.04
 203  0.873  0.755  0.999-  20 1.95  56 2.01
 204  0.872  0.741  0.503-  21 1.94  57 2.03
 205  0.378  0.258  0.243-  58 1.96  30 2.02
 206  0.373  0.245  0.751-  31 1.99  59 2.04
 207  0.377  0.750  0.247-  32 2.00  60 2.06
 208  0.375  0.751  0.748-  33 1.97  61 1.97
 209  0.874  0.257  0.242-  26 1.95  62 2.04
 210  0.874  0.251  0.745-  27 2.01  63 2.04
 211  0.874  0.749  0.249-  64 1.98  28 2.06
 212  0.003  0.127  0.001-  18 2.02   2 2.04
 213  0.001  0.125  0.509-  19 1.91   3 2.08
 214  0.993  0.625  0.995-   4 2.01  20 2.06
 215  0.005  0.626  0.493-   5 1.93  21 2.02
 216  0.510  0.123  0.981-   1 1.94   6 2.08  22 2.17
 217  0.488  0.627  0.998-  24 1.99   8 2.03
 218  0.509  0.627  0.492-  25 1.96   9 1.99
 219  0.991  0.127  0.246-  10 1.94  26 2.02
 220  0.997  0.623  0.257-  28 1.95  12 2.00
 221  0.014  0.624  0.756-  13 1.97  29 1.97
 222  0.499  0.626  0.259-  32 1.94  16 2.01
 223  0.998  0.374  0.498-  19 1.94   5 2.00
 224  0.492  0.372  0.511-   9 1.98  23 1.98
 225  0.487  0.879  0.504-  25 1.96   7 2.02
 226  0.992  0.375  0.751-  13 1.93  27 2.05
 227  0.997  0.876  0.251-  10 1.97  28 1.98
 228  0.997  0.875  0.748-  29 1.93  11 2.04
 229  0.506  0.371  0.235-  16 1.97  30 2.02
 230  0.494  0.380  0.737-  17 1.98  31 2.04
 231  0.498  0.876  0.240-  32 1.94  14 2.05
 232  0.498  0.874  0.750-  33 2.02  15 2.04
 233  0.247  0.125  0.993-  34 1.96  50 1.97
 234  0.247  0.125  0.496-  35 2.02  51 2.05
 235  0.244  0.626  0.505-  53 2.00  37 2.04
 236  0.745  0.126  0.004-  54 1.94  38 1.96
 237  0.763  0.625  0.005-  56 1.94  40 1.95
 238  0.741  0.626  0.502-  57 1.96  41 1.98
 239  0.261  0.126  0.253-  42 1.93  58 2.04
 240  0.245  0.125  0.757-  43 1.97  59 1.97
 241  0.253  0.624  0.241-  60 1.94  44 2.04
 242  0.760  0.126  0.247-  62 1.95  46 1.96
 243  0.749  0.625  0.246-  64 1.94  48 1.95
 244  0.737  0.625  0.747-  65 1.97  49 1.98
 245  0.248  0.376  0.998-  50 1.93  36 2.04
 246  0.246  0.874  0.003-  34 1.93  52 2.04
 247  0.745  0.374  0.987-  54 1.94  40 1.96
 248  0.757  0.372  0.490-  41 1.95  55 2.02
 249  0.744  0.874  0.007-  56 1.95  38 1.95
 250  0.763  0.876  0.502-  57 1.94  39 2.03
 251  0.257  0.376  0.756-  59 1.94  45 2.03
 252  0.253  0.876  0.251-  42 1.96  60 1.98
 253  0.251  0.874  0.746-  43 1.93  61 2.04
 254  0.746  0.374  0.265-  62 1.93  48 1.96
 255  0.758  0.374  0.758-  49 1.93  63 2.04
 256  0.752  0.875  0.245-  46 1.94  64 1.95
 257  0.756  0.875  0.746-  65 1.93  47 2.04
 

IMPORTANT INFORMATION: All symmetrisations will be switched off!
NOSYMM: (Re-)initialisation of all symmetry stuff for point group C_1.

 
 
 KPOINTS: Title                                   

Automatic generation of k-mesh.
Space group operators:
 irot       det(A)        alpha          n_x          n_y          n_z        tau_x        tau_y        tau_z
    1     1.000000     0.000001     1.000000     0.000000     0.000000     0.000000     0.000000     0.000000
 
 Subroutine IBZKPT returns following result:
 ===========================================
 
 Found      4 irreducible k-points:
 
 Following reciprocal coordinates:
            Coordinates               Weight
  0.250000  0.250000  0.250000      2.000000
 -0.250000  0.250000  0.250000      2.000000
  0.250000 -0.250000  0.250000      2.000000
 -0.250000 -0.250000  0.250000      2.000000
 
 Following cartesian coordinates:
            Coordinates               Weight
  0.016206  0.016206  0.016206      2.000000
 -0.016206  0.016206  0.016206      2.000000
  0.016206 -0.016206  0.016206      2.000000
 -0.016206 -0.016206  0.016206      2.000000
 


--------------------------------------------------------------------------------------------------------




 Dimension of arrays:
   k-points           NKPTS =      4   k-points in BZ     NKDIM =      4   number of bands    NBANDS=   1164
   number of dos      NEDOS =   3001   number of ions     NIONS =    257
   non local maximal  LDIM  =      6   non local SUM 2l+1 LMDIM =     18
   total plane-waves  NPLWV = ******
   max r-space proj   IRMAX =   7595   max aug-charges    IRDMAX= 146383
   dimension x,y,z NGX =   120 NGY =  120 NGZ =  120
   dimension x,y,z NGXF=   240 NGYF=  240 NGZF=  240
   support grid    NGXF=   480 NGYF=  480 NGZF=  480
   ions per type =               1  64  64 128
   NGX,Y,Z   is equivalent  to a cutoff of  12.93, 12.93, 12.93 a.u.
   NGXF,Y,Z  is equivalent  to a cutoff of  25.86, 25.86, 25.86 a.u.

 SYSTEM =  LTO                                     
 POSCAR =  config 36                               

 Startparameter for this run:
   NWRITE =      2    write-flag & timer
   PREC   = accura    normal or accurate (medium, high low for compatibility)
   ISTART =      1    job   : 0-new  1-cont  2-samecut
   ICHARG =      0    charge: 1-file 2-atom 10-const
   ISPIN  =      2    spin polarized calculation?
   LNONCOLLINEAR =      F non collinear calculations
   LSORBIT =      F    spin-orbit coupling
   INIWAV =      1    electr: 0-lowe 1-rand  2-diag
   LASPH  =      T    aspherical Exc in radial PAW
   METAGGA=      F    non-selfconsistent MetaGGA calc.

 Electronic Relaxation 1
   ENCUT  =  500.0 eV  36.75 Ry    6.06 a.u.  28.13 28.13 28.13*2*pi/ulx,y,z
   ENINI  =  500.0     initial cutoff
   ENAUG  =  628.9 eV  augmentation charge cutoff
   NELM   =     60;   NELMIN=  2; NELMDL=  0     # of ELM steps 
   EDIFF  = 0.1E-05   stopping-criterion for ELM
   LREAL  =      T    real-space projection
   NLSPLINE    = F    spline interpolate recip. space projectors
   LCOMPAT=      F    compatible to vasp.4.4
   GGA_COMPAT  = T    GGA compatible to vasp.4.4-vasp.4.6
   LMAXPAW     = -100 max onsite density
   LMAXMIX     =    4 max onsite mixed and CHGCAR
   VOSKOWN=      0    Vosko Wilk Nusair interpolation
   ROPT   =   -0.00010  -0.00010  -0.00010  -0.00010
 Ionic relaxation
   EDIFFG = -.5E-01   stopping-criterion for IOM
   NSW    =    100    number of steps for IOM
   NBLOCK =      1;   KBLOCK =    100    inner block; outer block 
   IBRION =      1    ionic relax: 0-MD 1-quasi-New 2-CG
   NFREE  =      0    steps in history (QN), initial steepest desc. (CG)
   ISIF   =      2    stress and relaxation
   IWAVPR =     11    prediction:  0-non 1-charg 2-wave 3-comb
   ISYM   =      0    0-nonsym 1-usesym 2-fastsym
   LCORR  =      T    Harris-Foulkes like correction to forces

   POTIM  = 0.5000    time-step for ionic-motion
   TEIN   =    0.0    initial temperature
   TEBEG  =    0.0;   TEEND  =   0.0 temperature during run
   SMASS  =  -3.00    Nose mass-parameter (am)
   estimated Nose-frequenzy (Omega)   =  0.10E-29 period in steps =****** mass=  -0.544E-26a.u.
   SCALEE = 1.0000    scale energy and forces
   NPACO  =    256;   APACO  = 16.0  distance and # of slots for P.C.
   PSTRESS=    0.0 pullay stress

  Mass of Ions in am
   POMASS =   7.01 47.88 16.00 19.00
  Ionic Valenz
   ZVAL   =   3.00 10.00  6.00  7.00
  Atomic Wigner-Seitz radii
   RWIGS  =  -1.00 -1.00 -1.00 -1.00
  virtual crystal weights 
   VCA    =   1.00  1.00  1.00  1.00
   NELECT =    1923.0000    total number of electrons
   NUPDOWN=       1.0000    fix difference up-down

 DOS related values:
   EMIN   =  10.00;   EMAX   =-10.00  energy-range for DOS
   EFERMI =   0.00
   ISMEAR =     0;   SIGMA  =   0.01  broadening in eV -4-tet -1-fermi 0-gaus

 Electronic relaxation 2 (details)
   IALGO  =     38    algorithm
   LDIAG  =      T    sub-space diagonalisation (order eigenvalues)
   LSUBROT=      F    optimize rotation matrix (better conditioning)
   TURBO    =      0    0=normal 1=particle mesh
   IRESTART =      0    0=no restart 2=restart with 2 vectors
   NREBOOT  =      0    no. of reboots
   NMIN     =      0    reboot dimension
   EREF     =   0.00    reference energy to select bands
   IMIX   =      4    mixing-type and parameters
     AMIX     =   0.40;   BMIX     =  1.00
     AMIX_MAG =   1.60;   BMIX_MAG =  1.00
     AMIN     =   0.10
     WC   =   100.;   INIMIX=   1;  MIXPRE=   1;  MAXMIX= -45

 Intra band minimization:
   WEIMIN = 0.0010     energy-eigenvalue tresh-hold
   EBREAK =  0.21E-09  absolut break condition
   DEPER  =   0.30     relativ break condition  

   TIME   =   0.40     timestep for ELM

  volume/ion in A,a.u.               =      14.28        96.39
  Fermi-wavevector in a.u.,A,eV,Ry     =   1.319690  2.493853 23.695660  1.741582
  Thomas-Fermi vector in A             =   2.449570
 
 Write flags
   LWAVE        =      T    write WAVECAR
   LDOWNSAMPLE  =      F    k-point downsampling of WAVECAR
   LCHARG       =      T    write CHGCAR
   LVTOT        =      F    write LOCPOT, total local potential
   LVHAR        =      F    write LOCPOT, Hartree potential only
   LELF         =      F    write electronic localiz. function (ELF)
   LORBIT       =     11    0 simple, 1 ext, 2 COOP (PROOUT), +10 PAW based schemes


 Dipole corrections
   LMONO  =      F    monopole corrections only (constant potential shift)
   LDIPOL =      F    correct potential (dipole corrections)
   IDIPOL =      0    1-x, 2-y, 3-z, 4-all directions 
   EPSILON=  1.0000000 bulk dielectric constant

 LDA+U is selected, type is set to LDAUTYPE =  2
   angular momentum for each species LDAUL =    -1    2   -1   -1
   U (eV)           for each species LDAUU =   0.0  4.2  0.0  0.0
   J (eV)           for each species LDAUJ =   0.0  0.0  0.0  0.0
 Exchange correlation treatment:
   GGA     =    PS    GGA type
   LEXCH   =    14    internal setting for exchange type
   VOSKOWN=      0    Vosko Wilk Nusair interpolation
   LHFCALC =     F    Hartree Fock is set to
   LHFONE  =     F    Hartree Fock one center treatment
   AEXX    =    0.0000 exact exchange contribution

 Linear response parameters
   LEPSILON=     F    determine dielectric tensor
   LRPA    =     F    only Hartree local field effects (RPA)
   LNABLA  =     F    use nabla operator in PAW spheres
   LVEL    =     F    velocity operator in full k-point grid
   LINTERFAST=   F  fast interpolation
   KINTER  =     0    interpolate to denser k-point grid
   CSHIFT  =0.1000    complex shift for real part using Kramers Kronig
   OMEGAMAX=  -1.0    maximum frequency
   DEG_THRESHOLD= 0.2000000E-02 threshold for treating states as degnerate
   RTIME   =   -0.100 relaxation time in fs
  (WPLASMAI=    0.000 imaginary part of plasma frequency in eV, 0.658/RTIME)
   DFIELD  = 0.0000000 0.0000000 0.0000000 field for delta impulse in time
 
 Orbital magnetization related:
   ORBITALMAG=     F  switch on orbital magnetization
   LCHIMAG   =     F  perturbation theory with respect to B field
   DQ        =  0.001000  dq finite difference perturbation B field
   LLRAUG    =     F  two centre corrections for induced B field



--------------------------------------------------------------------------------------------------------


 quasi-Newton-method for relaxation of ions
 charge density and potential will be updated during run
 spin polarized calculation
 Variant of blocked Davidson
 Davidson routine will perform the subspace rotation
 perform sub-space diagonalisation
    after iterative eigenvector-optimisation
 modified Broyden-mixing scheme, WC =      100.0
 initial mixing is a Kerker type mixing with AMIX =  0.4000 and BMIX =      1.0000
 Hartree-type preconditioning will be used
 using additional bands          202
 real space projection scheme for non local part
 use partial core corrections
 calculate Harris-corrections to forces 
   (improved forces if not selfconsistent)
 use gradient corrections 
 use of overlap-Matrix (Vanderbilt PP)
 Gauss-broadening in eV      SIGMA  =   0.01


--------------------------------------------------------------------------------------------------------


  energy-cutoff  :      500.00
  volume of cell :     3671.03
      direct lattice vectors                 reciprocal lattice vectors
    15.426331000  0.000000000  0.000000000     0.064824228  0.000000000  0.000000000
     0.000000000 15.426331000  0.000000000     0.000000000  0.064824228  0.000000000
     0.000000000  0.000000000 15.426331000     0.000000000  0.000000000  0.064824228

  length of vectors
    15.426331000 15.426331000 15.426331000     0.064824228  0.064824228  0.064824228


 
 old parameters found on file WAVECAR:
  energy-cutoff  :      500.00
  volume of cell :     3671.03
      direct lattice vectors                 reciprocal lattice vectors
    15.426331000  0.000000000  0.000000000     0.064824228  0.000000000  0.000000000
     0.000000000 15.426331000  0.000000000     0.000000000  0.064824228  0.000000000
     0.000000000  0.000000000 15.426331000     0.000000000  0.000000000  0.064824228

  length of vectors

 
 k-points in units of 2pi/SCALE and weight: Title                                   
   0.01620606  0.01620606  0.01620606       0.250
  -0.01620606  0.01620606  0.01620606       0.250
   0.01620606 -0.01620606  0.01620606       0.250
  -0.01620606 -0.01620606  0.01620606       0.250
 
 k-points in reciprocal lattice and weights: Title                                   
   0.25000000  0.25000000  0.25000000       0.250
  -0.25000000  0.25000000  0.25000000       0.250
   0.25000000 -0.25000000  0.25000000       0.250
  -0.25000000 -0.25000000  0.25000000       0.250
 
 position of ions in fractional coordinates (direct lattice) 
   0.57735718  0.14336389  0.87739393
   0.99644876  0.99509731  0.99428017
   0.99964793  0.99170169  0.49346185
   0.00624976  0.49538845  0.99760796
   0.99398902  0.50283030  0.50729547
   0.49460829  0.99087521  0.00081979
   0.50135879  0.00881595  0.49817888
   0.50461722  0.49669052  0.99589325
   0.49196188  0.49913086  0.49508292
   0.00717974  0.00288964  0.25589760
   0.00290997  0.00720807  0.75678915
   0.99387685  0.49349254  0.25154402
   0.99255476  0.49937224  0.74200445
   0.50631659  0.00876478  0.25049871
   0.49494519  0.00640438  0.75268982
   0.49318198  0.49608492  0.25709231
   0.50126183  0.50640368  0.75829595
   0.99618195  0.25734695  0.00176437
   0.99788873  0.24793500  0.49132716
   0.99857579  0.75785135  0.00638905
   0.99743313  0.75648635  0.50612288
   0.49373626  0.26077095  0.00392345
   0.50823160  0.24537862  0.49631432
   0.50779754  0.75470867  0.99992526
   0.50693422  0.75308427  0.50881165
   0.99944535  0.25806893  0.25526037
   0.00474701  0.24252760  0.74744935
   0.00703886  0.74834782  0.24329432
   0.99305525  0.75016547  0.74337842
   0.50806899  0.24149358  0.25201660
   0.50198436  0.24901783  0.74792303
   0.50687356  0.75148167  0.25194645
   0.50228013  0.74368331  0.74368384
   0.25720105  0.99851863  0.00593936
   0.25080434  0.99396931  0.50685442
   0.24409394  0.50783269  0.99757817
   0.25437135  0.49441207  0.50654141
   0.75801047  0.99941605  0.99412799
   0.74991923  0.00702550  0.49456173
   0.74215397  0.50009751  0.00510743
   0.75546887  0.49794624  0.50550910
   0.24523751  0.00232764  0.24366467
   0.25946535  0.99856607  0.74470927
   0.25543500  0.49210441  0.25172309
   0.24664259  0.50645132  0.74112902
   0.74478101  0.00045427  0.25571810
   0.74842332  0.00642090  0.75575617
   0.75593025  0.49847785  0.24277048
   0.75743301  0.49850683  0.74263947
   0.25655229  0.25119358  0.00627999
   0.25276111  0.25680305  0.50543364
   0.25245068  0.74244905  0.99359840
   0.25199004  0.75550350  0.49289923
   0.75843349  0.25080262  0.00787894
   0.74187402  0.24275016  0.49735125
   0.74240169  0.74846790  0.99410350
   0.74163197  0.75243325  0.49416592
   0.25090608  0.25756488  0.24364738
   0.24140104  0.25202345  0.74374542
   0.24415144  0.74787627  0.25585474
   0.24785525  0.74213616  0.75664893
   0.74179640  0.25071262  0.24259100
   0.74232274  0.24310099  0.75118533
   0.74583264  0.74977616  0.25692811
   0.75796609  0.75018336  0.75679946
   0.00796659  0.50171589  0.62467851
   0.99831929  0.00573970  0.37592912
   0.00379328  0.00195014  0.87306833
   0.49976591  0.48986027  0.37487501
   0.49446747  0.49564631  0.87528858
   0.99901361  0.74579745  0.12581648
   0.00165803  0.74571421  0.62429392
   0.50219694  0.74997813  0.62437843
   0.99241192  0.24669984  0.37635737
   0.25757979  0.00315656  0.12509022
   0.25739968  0.00387656  0.62486226
   0.23935890  0.49537508  0.62570992
   0.75041814  0.49020859  0.12553677
   0.74592694  0.49314011  0.62426218
   0.74814237  0.99983226  0.37588914
   0.74103064  0.00090192  0.87439780
   0.24362585  0.24932394  0.12544655
   0.25019859  0.24966052  0.62486260
   0.73860819  0.25883202  0.12621998
   0.25485267  0.74623556  0.37453487
   0.25180044  0.75260995  0.87535323
   0.75251008  0.75078719  0.37423271
   0.74876922  0.75036796  0.87579994
   0.12469394  0.50432038  0.99450987
   0.62603457  0.50921595  0.99822145
   0.12581426  0.00411745  0.24940258
   0.62505688  0.00294229  0.24706014
   0.62443870  0.25885795  0.48917521
   0.62476590  0.73955106  0.00315255
   0.62466359  0.76362388  0.49580303
   0.12294091  0.25569778  0.75082455
   0.12558414  0.75032641  0.25183382
   0.62540090  0.24383847  0.26407645
   0.62759983  0.25422206  0.75767436
   0.62300423  0.75227841  0.25120114
   0.37724352  0.99980050  0.99056966
   0.37541392  0.50601463  0.50362791
   0.87372484  0.00049206  0.99718100
   0.87521183  0.50398438  0.49955240
   0.37637324  0.00204880  0.75884009
   0.37409664  0.49475163  0.24852816
   0.87569526  0.49617265  0.25216137
   0.87521801  0.51084491  0.74630510
   0.37586356  0.24784475  0.00678966
   0.87480246  0.24930905  0.00924820
   0.87519908  0.74058171  0.74950400
   0.51158258  0.12242476  0.48521173
   0.99979511  0.12581294  0.74423608
   0.49396689  0.12502762  0.26757992
   0.51315157  0.11950743  0.76631550
   0.50448966  0.62709178  0.75332620
   0.00181747  0.37485480  0.00404834
   0.00336387  0.87480657  0.00152153
   0.99403149  0.87475674  0.49835908
   0.50491181  0.37510593  0.01268309
   0.50526622  0.87370726  0.01056042
   0.00779858  0.37371043  0.24779208
   0.25673594  0.62497642  0.00196993
   0.73964522  0.12487456  0.50460342
   0.24406843  0.62489896  0.75028285
   0.74658534  0.12348166  0.74454752
   0.25327349  0.37319052  0.49333564
   0.25434744  0.87562046  0.49952043
   0.24134912  0.37422398  0.25617093
   0.99805669  0.00242417  0.12668556
   0.00093434  0.99766163  0.62359290
   0.00067439  0.50795073  0.12519696
   0.49245940  0.01570941  0.12574031
   0.49484115  0.00597445  0.62244332
   0.50254435  0.51074759  0.12752574
   0.50821545  0.50727567  0.62352802
   0.00328289  0.49626805  0.37609343
   0.99503661  0.49788225  0.87303614
   0.50656423  0.98293591  0.37582225
   0.52186115  0.98908440  0.87678602
   0.00972588  0.24528371  0.12747802
   0.00013409  0.25766612  0.62121344
   0.51259139  0.23087400  0.12644559
   0.50042266  0.23675873  0.61824188
   0.49631131  0.74100347  0.12721633
   0.99326906  0.25023165  0.87471420
   0.99436252  0.74984765  0.37520515
   0.00157381  0.75037196  0.87420625
   0.48780994  0.26880631  0.37397608
   0.50029093  0.25446982  0.87891371
   0.49269838  0.75924467  0.37536792
   0.49852870  0.75542180  0.87503748
   0.24453140  0.49422545  0.12468149
   0.75238912  0.00194035  0.12643122
   0.75074404  0.99428461  0.62298839
   0.25071373  0.00120765  0.37508394
   0.24196977  0.99495812  0.87475286
   0.24742771  0.51121612  0.37501432
   0.25933528  0.49755283  0.87367763
   0.74665314  0.50641862  0.37471379
   0.75302371  0.50568539  0.87438764
   0.25222093  0.75446239  0.12495201
   0.24892309  0.75094420  0.62497031
   0.74677534  0.26071477  0.62281728
   0.75244818  0.74893429  0.12596709
   0.74763675  0.74961928  0.62447487
   0.25400927  0.24350872  0.37389535
   0.25219423  0.25126885  0.87561806
   0.76442003  0.24273281  0.37389916
   0.75786218  0.24170048  0.87723046
   0.12698706  0.00273062  0.00464839
   0.12494794  0.00177635  0.50128024
   0.12327693  0.49768844  0.49221110
   0.62538705  0.00348571  0.01079403
   0.62393789  0.98259146  0.50562247
   0.62548256  0.49195909  0.49709244
   0.12736326  0.99611595  0.74426225
   0.12412212  0.50822567  0.24940008
   0.12311780  0.49043724  0.76254032
   0.62504797  0.98705233  0.73722603
   0.62532382  0.50074626  0.25013223
   0.62688895  0.49265664  0.75588461
   0.12513414  0.24847701  0.99365384
   0.12300324  0.24853979  0.49648381
   0.12553570  0.74422428  0.00080911
   0.12420915  0.75218845  0.49589967
   0.62601521  0.24256501  0.98671922
   0.12438727  0.23610175  0.25799027
   0.12346628  0.75751671  0.75110211
   0.62687622  0.75795483  0.75066819
   0.37779969  0.00929962  0.49171965
   0.37371255  0.49423461  0.00776332
   0.87459885  0.00992686  0.50481550
   0.87477567  0.49587467  0.99954734
   0.37782435  0.99466438  0.25731905
   0.37440681  0.50387462  0.74129830
   0.87398200  0.99760153  0.24926808
   0.87490307  0.99672661  0.74714616
   0.37853930  0.24052774  0.49826558
   0.37702212  0.75733052  0.00211157
   0.37732749  0.74192214  0.50225416
   0.87357314  0.24646428  0.50712329
   0.87255533  0.75535529  0.99934186
   0.87242840  0.74061430  0.50334234
   0.37823988  0.25751059  0.24258024
   0.37318858  0.24482095  0.75118140
   0.37721845  0.75017381  0.24723870
   0.37504759  0.75146341  0.74842365
   0.87382470  0.25651413  0.24186281
   0.87446852  0.25102401  0.74465487
   0.87385478  0.74921293  0.24903934
   0.00312531  0.12674918  0.00124808
   0.00086464  0.12547137  0.50889486
   0.99299025  0.62507251  0.99483272
   0.00466160  0.62639410  0.49258674
   0.50990862  0.12315684  0.98126796
   0.48794065  0.62703766  0.99775879
   0.50942398  0.62706115  0.49178519
   0.99057412  0.12746338  0.24643186
   0.99741165  0.62325032  0.25697081
   0.01369675  0.62441402  0.75560590
   0.49942857  0.62598462  0.25918197
   0.99839558  0.37367650  0.49820496
   0.49219666  0.37191034  0.51144100
   0.48657751  0.87866886  0.50363556
   0.99190701  0.37475112  0.75083283
   0.99697511  0.87587106  0.25138623
   0.99678364  0.87531052  0.74756800
   0.50578166  0.37114820  0.23532074
   0.49386449  0.38032876  0.73715813
   0.49826558  0.87636949  0.23984154
   0.49842534  0.87427623  0.74983985
   0.24745126  0.12471092  0.99322051
   0.24727350  0.12452918  0.49625958
   0.24401458  0.62639717  0.50468111
   0.74502682  0.12550825  0.00433678
   0.76313189  0.62482689  0.00497166
   0.74089883  0.62554918  0.50242767
   0.26133678  0.12633938  0.25311353
   0.24505207  0.12481397  0.75719981
   0.25298010  0.62355997  0.24090994
   0.76014170  0.12598975  0.24689851
   0.74892330  0.62478223  0.24591087
   0.73709179  0.62491747  0.74654782
   0.24826533  0.37571913  0.99758333
   0.24578154  0.87404416  0.00295147
   0.74500267  0.37406953  0.98711516
   0.75735196  0.37228497  0.48958986
   0.74405506  0.87414992  0.00681567
   0.76348456  0.87633255  0.50214607
   0.25688544  0.37609339  0.75576063
   0.25344724  0.87556674  0.25105129
   0.25081492  0.87371011  0.74630744
   0.74614515  0.37388639  0.26517608
   0.75812056  0.37419573  0.75847768
   0.75245727  0.87515449  0.24458256
   0.75612323  0.87456736  0.74645385
 
 position of ions in cartesian coordinates  (Angst):
   8.90650292  2.21157889 13.53496914
  15.37154843 15.35070046 15.33809507
  15.42089981 15.29831860  7.61230577
   0.09641080  7.64202616 15.38943060
  15.33360371  7.75682669  7.82570784
   7.62999114 15.28556891  0.01264640
   7.73412672  0.13599779  7.68507236
   7.78439225  7.66211241 15.36297890
   7.58916679  7.69975783  7.63731304
   0.11075704  0.04457650  3.94756104
   0.04489010  0.11119403 11.67447999
  15.33187331  7.61277932  3.88040130
  15.31147824  7.70348153 11.44640631
   7.81060735  0.13520840  3.86427599
   7.63518832  0.09879602 11.61124232
   7.60798853  7.65277015  3.96599114
   7.73263092  7.81195072 11.69772438
  15.36743254  3.96991930  0.02721776
  15.39376177  3.82472736  7.57937534
  15.40436059 11.69086582  0.09855959
  15.38673359 11.66980883  7.80761902
   7.61653893  4.02273895  0.06052451
   7.84014896  3.78529188  7.65630902
   7.83345297 11.64238582 15.42517801
   7.82013514 11.61732714  7.84909689
  15.41777483  3.98105669  3.93773101
   0.07322888  3.74131111 11.53040112
   0.10858377 11.54426125  3.75313870
  15.31919894 11.57230088 11.46760159
   7.83764036  3.72535987  3.88769150
   7.74377694  3.84143152 11.53770827
   7.81919930 11.59260503  3.88660935
   7.74833954 11.47230483 11.47231309
   3.96766849 15.40347891  0.09162250
   3.86899079 15.33329953  7.81890399
   3.76547384  7.83399522 15.38897110
   3.92401664  7.62696418  7.81407543
  11.69332047 15.41732285 15.33574744
  11.56850223  0.10837765  7.62927290
  11.44871274  7.71466970  0.07878888
  11.65411283  7.68148358  7.79815064
   3.78311500  0.03590688  3.75885179
   4.00259844 15.40421068 11.48813166
   3.94042481  7.59136557  3.88316374
   3.80479022  7.81268563 11.43290153
  11.48923845  0.00700777  3.94479206
  11.54542587  0.09905097 11.65854487
  11.66123027  7.68968434  3.74505772
  11.68441227  7.69013140 11.45620229
   3.95766049  3.87499532  0.09687713
   3.89917649  3.96152890  7.79698663
   3.89438775 11.45326475 15.32757785
   3.88728171 11.65464705  7.60362661
  11.69984607  3.86896420  0.12154307
  11.44439426  3.74474427  7.67230500
  11.45253427 11.54611353 15.33536961
  11.44066019 11.60728444  7.62316707
   3.87056020  3.97328110  3.75858512
   3.72393233  3.88779714 11.47326309
   3.76636087 11.53698689  3.94689986
   3.82349711 11.44843799 11.67231678
  11.44319687  3.86757589  3.74228911
  11.45131634  3.75015640 11.58803351
  11.50546125 11.56629524  3.96345802
  11.69263577 11.57257677 11.67463901
   0.12289527  7.73963542  9.63649743
  15.40040386  0.08854256  5.79920707
   0.05851635  0.03008349 13.46824103
   7.70955431  7.55674674  5.78294599
   7.62781889  7.64600410 13.50249130
  15.41111468 11.50491839  1.94088671
   0.02557732 11.50363420  9.63056472
   7.74705624 11.56941090  9.63186827
  15.30927471  3.80567345  5.80581343
   3.97351114  0.04869419  1.92968321
   3.97073272  0.05980106  9.63933209
   3.69242957  7.64181991  9.65240829
  11.57619856  7.56212002  1.93657184
  11.50691585  7.60734260  9.63007505
  11.54109180 15.42374338  5.79859027
  11.43138387  0.01391332 13.48874989
   3.75825293  3.84615358  1.93517995
   3.85964630  3.85134584  9.63933731
  11.39401446  3.99282836  1.94711116
   3.93144158 11.51167673  5.77769887
   3.88435689 11.61001018 13.50348865
  11.60846951 11.58189165  5.77303759
  11.55076186 11.57542451 13.51037982
   1.92357000  7.77981314 15.34163844
   9.65741655  7.85533378 15.39889448
   1.94085235  0.06351708  3.84736680
   9.64233431  0.04538879  3.81123150
   9.63279804  3.99322849  7.54617877
   9.63784551 11.40855950  0.04863222
   9.63626725 11.77991475  7.64842164
   1.89652710  3.94447867 11.58246806
   1.93730259 11.57478355  3.88487192
   9.64764128  3.76153293  4.07373079
   9.68156267  3.92171359 11.68813541
   9.61066943 11.60489581  3.87511190
   5.81948341 15.42325346 15.28085552
   5.79125939  7.80594910  7.76913091
  13.47836862  0.00759069 15.38284422
  13.50130737  7.77462985  7.70626070
   5.80605813  0.03160540 11.70611834
   5.77093854  7.63220243  3.83387758
  13.50876491  7.65412350  3.88992472
  13.50140269  7.88046268 11.51274948
   5.79819564  3.82333510  0.10473949
  13.49499226  3.84592387  0.14266573
  13.50111066 11.42445856 11.56209678
   7.89184224  1.88856489  7.48503678
  15.42317034  1.94083203 11.48083216
   7.62009682  1.92871740  4.12777636
   7.91604593  1.84356119 11.82143648
   7.78242446  9.67372538 11.62105927
   0.02803687  5.78263427  0.06245096
   0.05189215 13.49505574  0.02347160
  15.33425881 13.49428701  7.68785207
   7.78893671  5.78650825  0.19565359
   7.79440402 13.47809744  0.16290861
   0.12030347  5.76498075  3.82252272
   3.96049351  9.64109315  0.03038882
  11.41001203  1.92635623  7.78417934
   3.76508033  9.63989824 11.57411161
  11.51707255  1.90486894 11.48563652
   3.90708074  5.75696044  7.61035881
   3.92364785 13.50761112  7.70576755
   3.72313136  5.77290299  3.95177761
  15.39635290  0.03739603  1.95429341
   0.01441338 15.39025856  9.61975053
   0.01040337  7.83581604  1.93132971
   7.59684174  0.24233857  1.93971157
   7.63358339  0.09216383  9.60201663
   7.75241541  7.87896145  1.96725428
   7.83989982  7.82540243  9.61874960
   0.05064292  7.65559519  5.80174180
  15.34976409  7.68049641 13.46774445
   7.81442749 15.16309475  5.79755847
   8.05040290 15.25794340 13.52559142
   0.15003459  3.78382770  1.96651820
   0.00206854  3.97484283  9.58304418
   7.90740441  3.56153878  1.95059149
   7.71968564  3.65231853  9.53720391
   7.65626249 11.43096486  1.96248117
  15.32249727  3.86015623 13.49363080
  15.33936530 11.56739798  5.78803887
   0.02427811 11.57548621 13.48579498
   7.52511764  4.14669519  5.76907879
   7.71765355  3.92553571 13.55841387
   7.60052827 11.71235955  5.79054974
   7.69046878 11.65338675 13.49861778
   3.77222231  7.62408543  1.92337801
  11.60660364  0.02993246  1.95036985
  11.58122605 15.33816357  9.61042514
   3.86759305  0.01862966  5.78616903
   3.73270578 15.34855327 13.49422718
   3.81690173  7.88618916  5.78509509
   4.00059188  7.67541470 13.47764027
  11.51811841  7.81218121  5.78045897
  11.61639307  7.80087015 13.48859309
   3.89084358 11.63858657  1.92755103
   3.83997005 11.58431372  9.64099883
  11.52000358  4.02187237  9.60778544
  11.60751464 11.55330820  1.94321010
  11.53329200 11.56387516  9.63335604
   3.91843115  3.75644614  5.76783340
   3.89043170  3.87615647 13.50757404
  11.79219642  3.74447668  5.76789220
  11.69103288  3.72855166 13.53244749
   1.95894446  0.04212348  0.07170761
   1.92748831  0.02740263  7.73291494
   1.90171071  7.67750664  7.59301137
   9.64742763  0.05377166  0.16651227
   9.62507239 15.15778110  7.79989961
   9.64890101  7.58912383  7.66831245
   1.96474778 15.36641432 11.48123576
   1.91474889  7.84005740  3.84732818
   1.89925595  7.56564724 11.76319938
   9.64219689 15.22659598 11.37269277
   9.64645228  7.72467756  3.85862252
   9.67059651  7.59988440 11.66052623
   1.93036071  3.83308856 15.32843305
   1.89748876  3.83405714  7.65892356
   1.93655530 11.48065015  0.01248153
   1.91609139 11.60350794  7.64991239
   9.65711782  3.74188809 15.22145725
   1.91883920  3.64218372  3.97984326
   1.90463168 11.68570358 11.58674972
   9.67039999 11.69246201 11.58005603
   5.82806305  0.14345898  7.58543009
   5.76501350  7.62422671  0.11975954
  13.49185138  0.15313497  7.78745102
  13.49457904  7.64952672 15.41934815
   5.82844349 15.34402192  3.96948879
   5.77572341  7.77293672 11.43551299
  13.48233570 15.38933134  3.84529194
  13.49654431 15.37583462 11.52572404
   5.83947260  3.71046052  7.68640984
   5.81606808 11.68283134  0.03257385
   5.82077880 11.44513644  7.74793888
  13.47602842  3.80203960  7.82305177
  13.46032727 11.65236068 15.41617825
  13.45836934 11.42496139  7.76472552
   5.83485360  3.97244356  3.74212304
   5.75693059  3.77668896 11.58797295
   5.81909669 11.57242945  3.81398598
   5.78560820 11.59232323 11.54543092
  13.47990907  3.95707193  3.73105576
  13.48984079  3.87237954 11.48729246
  13.48037316 11.55760664  3.84176336
   0.04821205  1.95527485  0.01925334
   0.01333819  1.93556290  7.85038050
  15.31819634  9.64257548 15.34661878
   0.07191136  9.66296266  7.59880614
   7.86601917  1.89985818 15.13736433
   7.52713396  9.67289044 15.39175739
   7.85854292  9.67325286  7.58644109
  15.28092419  1.96629226  3.80153951
  15.38640233  9.61446573  3.96411677
   0.21129053  9.63241735 11.65622676
   7.70435043  9.65664589  3.99822679
  15.40158072  5.76445745  7.68547460
   7.59278866  5.73721201  7.88965820
   7.50610576 13.55463663  7.76924887
  15.30148592  5.78103478 11.58259569
  15.37966807 13.51147683  3.87796727
  15.37671441 13.50282977 11.53223143
   7.80235526  5.72545498  3.63013568
   7.61851714  5.86707734 11.37164539
   7.68640969 13.51916578  3.69987495
   7.68887434 13.48687454 11.56727772
   3.81726506  1.92383194 15.32174838
   3.81452293  1.92102828  7.65546451
   3.76424965  9.66301005  7.78537781
  11.49303027  1.93613185  0.06690064
  11.77232513  9.63878643  0.07669454
  11.42935066  9.64992866  7.75061549
   4.03146766  1.94895302  3.90461314
   3.78025439  1.92542159 11.68081492
   3.90255476  9.61924255  3.71635648
  11.72619749  1.94355966  3.80873814
  11.55313864  9.63809749  3.79350250
  11.37062195  9.64018380 11.51649377
   3.82982320  5.79596764 15.38905061
   3.79150734 13.48329452  0.04553032
  11.49265773  5.77052038 15.22756518
  11.68316205  5.74299114  7.55257520
  11.47803960 13.48492609  0.10514080
  11.77776557 13.51859605  7.74627149
   3.96279984  5.80174115 11.65861371
   3.90976106 13.50678242  3.87280034
   3.86915403 13.47814134 11.51278562
  11.51028205  5.76769528  4.09069406
  11.69501864  5.77246714 11.70052770
  11.60765498 13.50042285  3.77301156
  11.66420718 13.49136551 11.51504421
 


--------------------------------------------------------------------------------------------------------


 k-point  1 :   0.2500 0.2500 0.2500  plane waves:   93161
 k-point  2 :  -0.2500 0.2500 0.2500  plane waves:   93161
 k-point  3 :   0.2500-0.2500 0.2500  plane waves:   93161
 k-point  4 :  -0.2500-0.2500 0.2500  plane waves:   93161

 maximum and minimum number of plane-waves per node :     11686    11606

 maximum number of plane-waves:     93161
 maximum index in each direction: 
   IXMAX=   28   IYMAX=   28   IZMAX=   27
   IXMIN=  -28   IYMIN=  -28   IZMIN=  -28


 real space projection operators:
  total allocation   :     105569.98 KBytes
  max/ min on nodes  :      13240.95      13165.41


 parallel 3D FFT for wavefunctions:
    minimum data exchange during FFTs selected (reduces bandwidth)
 parallel 3D FFT for charge:
    minimum data exchange during FFTs selected (reduces bandwidth)


 total amount of memory used by VASP MPI-rank0   291467. kBytes
=======================================================================

   base      :      30000. kBytes
   nonlr-proj:      49432. kBytes
   fftplans  :      27976. kBytes
   grid      :      34041. kBytes
   one-center:       1026. kBytes
   wavefun   :     148992. kBytes
 
     INWAV:  cpu time   53.0271: real time   53.3322
 Broyden mixing: mesh for mixing (old mesh)
   NGX = 57   NGY = 57   NGZ = 57
  (NGX  =240   NGY  =240   NGZ  =240)
  gives a total of 185193 points

 charge density for first step will be calculated from the start-wavefunctions


--------------------------------------------------------------------------------------------------------


 Maximum index for non-local projection operator          967
 Maximum index for augmentation-charges         3293 (set IRDMAX)


--------------------------------------------------------------------------------------------------------


 initial charge from wavefunction
 First call to EWALD:  gamma=   0.115
 Maximum number of real-space cells 3x 3x 3
 Maximum number of reciprocal cells 3x 3x 3

    FEWALD:  cpu time    0.0196: real time    0.0214


--------------------------------------- Iteration      1(   1)  ---------------------------------------


    POTLOK:  cpu time    0.2708: real time    0.2872
    SETDIJ:  cpu time    1.3955: real time    1.4317
     EDDAV:  cpu time  134.1992: real time  135.1005
       DOS:  cpu time    0.0029: real time    0.0029
    CHARGE:  cpu time    5.3274: real time    5.3307
    MIXING:  cpu time    0.0072: real time    0.0073
    --------------------------------------------
      LOOP:  cpu time  141.2029: real time  142.1603

 eigenvalue-minimisations  : 23124
 total energy-change (2. order) :-0.1841170E+04  (-0.3592090E+03)
 number of electron    1923.0000027 magnetization       1.0000000
 augmentation part      503.5910270 magnetization       0.7039541

 Broyden mixing:
  rms(total) = 0.74596E+01    rms(broyden)= 0.74565E+01
  rms(prec ) = 0.11593E+02
  weight for this iteration     100.00

 Free energy of the ion-electron system (eV)
  ---------------------------------------------------
  alpha Z        PSCENC =      6118.73324990
  Ewald energy   TEWEN  =   -103299.14617971
  -Hartree energ DENC   =    -65321.11663545
  -exchange      EXHF   =         0.00000000
  -V(xc)+E(xc)   XCENC  =      8959.90377866
  PAW double counting   =    198479.25956276  -199474.69253466
  entropy T*S    EENTRO =        -0.01011991
  eigenvalues    EBANDS =    -25881.35362782
  atomic energy  EATOM  =    178577.25249613
  Solvation  Ediel_sol  =         0.00000000
  ---------------------------------------------------
  free energy    TOTEN  =     -1841.17001008 eV

  energy without entropy =    -1841.15989018  energy(sigma->0) =    -1841.16495013


--------------------------------------------------------------------------------------------------------




--------------------------------------- Iteration      1(   2)  ---------------------------------------


    POTLOK:  cpu time    0.2637: real time    0.2659
    SETDIJ:  cpu time    1.3860: real time    1.3869
     EDDAV:  cpu time  146.2233: real time  147.2831
       DOS:  cpu time    0.0029: real time    0.0029
    CHARGE:  cpu time    5.3366: real time    5.3400
    MIXING:  cpu time    0.0076: real time    0.0076
    --------------------------------------------
      LOOP:  cpu time  153.2201: real time  154.2864

 eigenvalue-minimisations  : 25896
 total energy-change (2. order) : 0.1297588E+02  (-0.2667985E+03)
 number of electron    1923.0000027 magnetization       1.0000000
 augmentation part      502.7447361 magnetization       0.5990905

 Broyden mixing:
  rms(total) = 0.78511E+01    rms(broyden)= 0.78468E+01
  rms(prec ) = 0.11157E+02
  weight for this iteration     100.00

 eigenvalues of (default mixing * dielectric matrix)
  average eigenvalue GAMMA=   0.4660
  0.4660

 Free energy of the ion-electron system (eV)
  ---------------------------------------------------
  alpha Z        PSCENC =      6118.73324990
  Ewald energy   TEWEN  =   -103299.14617971
  -Hartree energ DENC   =    -65357.17836810
  -exchange      EXHF   =         0.00000000
  -V(xc)+E(xc)   XCENC  =      8958.24130507
  PAW double counting   =    200146.20630268  -201117.89243895
  entropy T*S    EENTRO =        -0.00132915
  eigenvalues    EBANDS =    -25854.40916330
  atomic energy  EATOM  =    178577.25249613
  Solvation  Ediel_sol  =         0.00000000
  ---------------------------------------------------
  free energy    TOTEN  =     -1828.19412543 eV

  energy without entropy =    -1828.19279627  energy(sigma->0) =    -1828.19346085


--------------------------------------------------------------------------------------------------------




--------------------------------------- Iteration      1(   3)  ---------------------------------------


    POTLOK:  cpu time    0.2655: real time    0.2658
    SETDIJ:  cpu time    1.4256: real time    1.4472
     EDDAV:  cpu time  149.3042: real time  150.5870
       DOS:  cpu time    0.0024: real time    0.0024
    CHARGE:  cpu time    5.3357: real time    5.3391
    MIXING:  cpu time    0.0401: real time    0.0401
    --------------------------------------------
      LOOP:  cpu time  156.3736: real time  157.6817

 eigenvalue-minimisations  : 26856
 total energy-change (2. order) :-0.1349909E+01  (-0.1007473E+03)
 number of electron    1923.0000027 magnetization       1.0000000
 augmentation part      493.0064210 magnetization       0.5970739

 Broyden mixing:
  rms(total) = 0.51071E+01    rms(broyden)= 0.51051E+01
  rms(prec ) = 0.58844E+01
  weight for this iteration     100.00

 eigenvalues of (default mixing * dielectric matrix)
  average eigenvalue GAMMA=   0.4708
  0.4708  0.4708

 Free energy of the ion-electron system (eV)
  ---------------------------------------------------
  alpha Z        PSCENC =      6118.73324990
  Ewald energy   TEWEN  =   -103299.14617971
  -Hartree energ DENC   =    -65428.39012250
  -exchange      EXHF   =         0.00000000
  -V(xc)+E(xc)   XCENC  =      8961.47435518
  PAW double counting   =    200179.65000842  -201149.69064027
  entropy T*S    EENTRO =        -0.00203523
  eigenvalues    EBANDS =    -25789.42516656
  atomic energy  EATOM  =    178577.25249613
  Solvation  Ediel_sol  =         0.00000000
  ---------------------------------------------------
  free energy    TOTEN  =     -1829.54403464 eV

  energy without entropy =    -1829.54199940  energy(sigma->0) =    -1829.54301702


--------------------------------------------------------------------------------------------------------




--------------------------------------- Iteration      1(   4)  ---------------------------------------


    POTLOK:  cpu time    0.3980: real time    0.4010
    SETDIJ:  cpu time    1.4490: real time    1.4498
     EDDAV:  cpu time  143.4878: real time  144.7414
       DOS:  cpu time    0.0021: real time    0.0021
    CHARGE:  cpu time    5.2986: real time    5.3135
    MIXING:  cpu time    0.0079: real time    0.0079
    --------------------------------------------
      LOOP:  cpu time  150.6435: real time  151.9159

 eigenvalue-minimisations  : 25584
 total energy-change (2. order) : 0.3673505E+02  (-0.2298324E+02)
 number of electron    1923.0000027 magnetization       1.0000000
 augmentation part      494.2906308 magnetization       0.6033098

 Broyden mixing:
  rms(total) = 0.35863E+01    rms(broyden)= 0.35856E+01
  rms(prec ) = 0.41708E+01
  weight for this iteration     100.00

 eigenvalues of (default mixing * dielectric matrix)
  average eigenvalue GAMMA=   0.5768
  0.6143  0.6143  0.5020

 Free energy of the ion-electron system (eV)
  ---------------------------------------------------
  alpha Z        PSCENC =      6118.73324990
  Ewald energy   TEWEN  =   -103299.14617971
  -Hartree energ DENC   =    -65403.83790464
  -exchange      EXHF   =         0.00000000
  -V(xc)+E(xc)   XCENC  =      8967.06247147
  PAW double counting   =    200250.59916795  -201235.70487258
  entropy T*S    EENTRO =        -0.00000000
  eigenvalues    EBANDS =    -25767.76740898
  atomic energy  EATOM  =    178577.25249613
  Solvation  Ediel_sol  =         0.00000000
  ---------------------------------------------------
  free energy    TOTEN  =     -1792.80898046 eV

  energy without entropy =    -1792.80898046  energy(sigma->0) =    -1792.80898046


--------------------------------------------------------------------------------------------------------




--------------------------------------- Iteration      1(   5)  ---------------------------------------


    POTLOK:  cpu time    0.2618: real time    0.2653
    SETDIJ:  cpu time    1.3845: real time    1.3850
     EDDAV:  cpu time  148.3642: real time  149.2757
       DOS:  cpu time    0.0022: real time    0.0022
    CHARGE:  cpu time    5.2028: real time    5.3554
    MIXING:  cpu time    0.0156: real time    0.0170
    --------------------------------------------
      LOOP:  cpu time  155.2312: real time  156.3006

 eigenvalue-minimisations  : 26664
 total energy-change (2. order) : 0.2597411E+02  (-0.7088322E+01)
 number of electron    1923.0000027 magnetization       1.0000000
 augmentation part      494.7390699 magnetization       0.6203127

 Broyden mixing:
  rms(total) = 0.20301E+01    rms(broyden)= 0.20297E+01
  rms(prec ) = 0.23688E+01
  weight for this iteration     100.00

 eigenvalues of (default mixing * dielectric matrix)
  average eigenvalue GAMMA=   0.7077
  0.8880  0.8880  0.5274  0.5274

 Free energy of the ion-electron system (eV)
  ---------------------------------------------------
  alpha Z        PSCENC =      6118.73324990
  Ewald energy   TEWEN  =   -103299.14617971
  -Hartree energ DENC   =    -65403.61189374
  -exchange      EXHF   =         0.00000000
  -V(xc)+E(xc)   XCENC  =      8970.68512225
  PAW double counting   =    199754.90437903  -200750.77506515
  entropy T*S    EENTRO =        -0.00000072
  eigenvalues    EBANDS =    -25734.87697631
  atomic energy  EATOM  =    178577.25249613
  Solvation  Ediel_sol  =         0.00000000
  ---------------------------------------------------
  free energy    TOTEN  =     -1766.83486831 eV

  energy without entropy =    -1766.83486759  energy(sigma->0) =    -1766.83486795


--------------------------------------------------------------------------------------------------------




--------------------------------------- Iteration      1(   6)  ---------------------------------------


    POTLOK:  cpu time    0.2776: real time    0.2896
    SETDIJ:  cpu time    1.4324: real time    1.4693
     EDDAV:  cpu time  151.1806: real time  152.1183
       DOS:  cpu time    0.0019: real time    0.0019
    CHARGE:  cpu time    5.2687: real time    5.3312
    MIXING:  cpu time    0.0261: real time    0.0261
    --------------------------------------------
      LOOP:  cpu time  158.1874: real time  159.2365

 eigenvalue-minimisations  : 27168
 total energy-change (2. order) : 0.7805237E+01  (-0.5819945E+01)
 number of electron    1923.0000027 magnetization       1.0000000
 augmentation part      496.1540624 magnetization       0.6585664

 Broyden mixing:
  rms(total) = 0.16396E+01    rms(broyden)= 0.16391E+01
  rms(prec ) = 0.17640E+01
  weight for this iteration     100.00

 eigenvalues of (default mixing * dielectric matrix)
  average eigenvalue GAMMA=   0.6562
  0.8829  0.8829  0.5248  0.5248  0.4654

 Free energy of the ion-electron system (eV)
  ---------------------------------------------------
  alpha Z        PSCENC =      6118.73324990
  Ewald energy   TEWEN  =   -103299.14617971
  -Hartree energ DENC   =    -65355.53222992
  -exchange      EXHF   =         0.00000000
  -V(xc)+E(xc)   XCENC  =      8971.24135145
  PAW double counting   =    199275.53645063  -200279.87881304
  entropy T*S    EENTRO =        -0.00000000
  eigenvalues    EBANDS =    -25767.23595663
  atomic energy  EATOM  =    178577.25249613
  Solvation  Ediel_sol  =         0.00000000
  ---------------------------------------------------
  free energy    TOTEN  =     -1759.02963119 eV

  energy without entropy =    -1759.02963119  energy(sigma->0) =    -1759.02963119


--------------------------------------------------------------------------------------------------------




--------------------------------------- Iteration      1(   7)  ---------------------------------------


    POTLOK:  cpu time    0.2907: real time    0.3196
    SETDIJ:  cpu time    1.3843: real time    1.4096
     EDDAV:  cpu time  153.6677: real time  154.8557
       DOS:  cpu time    0.0020: real time    0.0020
    CHARGE:  cpu time    5.0933: real time    5.3018
    MIXING:  cpu time    0.0223: real time    0.0236
    --------------------------------------------
      LOOP:  cpu time  160.4605: real time  161.9123

 eigenvalue-minimisations  : 27468
 total energy-change (2. order) : 0.2833985E+00  (-0.1128387E+01)
 number of electron    1923.0000027 magnetization       1.0000000
 augmentation part      496.5558054 magnetization       0.6139611

 Broyden mixing:
  rms(total) = 0.10278E+01    rms(broyden)= 0.10274E+01
  rms(prec ) = 0.10987E+01
  weight for this iteration     100.00

 eigenvalues of (default mixing * dielectric matrix)
  average eigenvalue GAMMA=   0.7684
  1.0863  1.0863  0.6990  0.6990  0.5198  0.5198

 Free energy of the ion-electron system (eV)
  ---------------------------------------------------
  alpha Z        PSCENC =      6118.73324990
  Ewald energy   TEWEN  =   -103299.14617971
  -Hartree energ DENC   =    -65345.49127905
  -exchange      EXHF   =         0.00000000
  -V(xc)+E(xc)   XCENC  =      8970.98486567
  PAW double counting   =    199120.23357446  -200124.45938586
  entropy T*S    EENTRO =        -0.00000000
  eigenvalues    EBANDS =    -25776.85357419
  atomic energy  EATOM  =    178577.25249613
  Solvation  Ediel_sol  =         0.00000000
  ---------------------------------------------------
  free energy    TOTEN  =     -1758.74623265 eV

  energy without entropy =    -1758.74623265  energy(sigma->0) =    -1758.74623265


--------------------------------------------------------------------------------------------------------




--------------------------------------- Iteration      1(   8)  ---------------------------------------


    POTLOK:  cpu time    0.2945: real time    0.3173
    SETDIJ:  cpu time    1.3173: real time    1.4045
     EDDAV:  cpu time  149.1123: real time  150.2506
       DOS:  cpu time    0.0020: real time    0.0020
    CHARGE:  cpu time    5.2219: real time    5.3191
    MIXING:  cpu time    0.0167: real time    0.0167
    --------------------------------------------
      LOOP:  cpu time  155.9647: real time  157.3102

 eigenvalue-minimisations  : 26616
 total energy-change (2. order) : 0.5269046E+00  (-0.6281644E+00)
[...]
   81        1.572   3.461   0.000   5.033
   82        1.575   3.462   0.000   5.036
   83        1.574   3.461   0.000   5.035
   84        1.576   3.471   0.000   5.046
   85        1.575   3.463   0.000   5.038
   86        1.575   3.466   0.000   5.041
   87        1.576   3.463   0.000   5.039
   88        1.575   3.466   0.000   5.041
   89        1.575   3.462   0.000   5.037
   90        1.575   3.458   0.000   5.033
   91        1.574   3.461   0.000   5.035
   92        1.574   3.460   0.000   5.035
   93        1.578   3.472   0.000   5.049
   94        1.577   3.472   0.000   5.049
   95        1.576   3.473   0.000   5.050
   96        1.575   3.466   0.000   5.042
   97        1.575   3.466   0.000   5.041
   98        1.576   3.472   0.000   5.049
   99        1.573   3.469   0.000   5.043
  100        1.576   3.458   0.000   5.034
  101        1.574   3.458   0.000   5.032
  102        1.575   3.460   0.000   5.034
  103        1.576   3.460   0.000   5.035
  104        1.574   3.461   0.000   5.035
  105        1.576   3.473   0.000   5.048
  106        1.575   3.463   0.000   5.038
  107        1.575   3.462   0.000   5.037
  108        1.576   3.472   0.000   5.048
  109        1.574   3.466   0.000   5.040
  110        1.575   3.462   0.000   5.037
  111        1.576   3.472   0.000   5.048
  112        1.577   3.461   0.000   5.038
  113        1.576   3.473   0.000   5.050
  114        1.577   3.471   0.000   5.048
  115        1.568   3.475   0.000   5.044
  116        1.575   3.467   0.000   5.042
  117        1.575   3.461   0.000   5.036
  118        1.576   3.463   0.000   5.039
  119        1.576   3.476   0.000   5.052
  120        1.576   3.463   0.000   5.039
  121        1.575   3.468   0.000   5.044
  122        1.577   3.468   0.000   5.045
  123        1.577   3.474   0.000   5.051
  124        1.576   3.470   0.000   5.046
  125        1.576   3.474   0.000   5.050
  126        1.574   3.471   0.000   5.045
  127        1.575   3.459   0.000   5.034
  128        1.574   3.461   0.000   5.035
  129        1.576   3.470   0.000   5.046
  130        1.737   4.369   0.000   6.106
  131        1.737   4.370   0.000   6.107
  132        1.737   4.379   0.000   6.117
  133        1.738   4.384   0.000   6.122
  134        1.738   4.382   0.000   6.119
  135        1.737   4.368   0.000   6.104
  136        1.737   4.366   0.000   6.102
  137        1.739   4.380   0.000   6.118
  138        1.738   4.381   0.000   6.119
  139        1.739   4.384   0.000   6.123
  140        1.739   4.385   0.000   6.124
  141        1.738   4.380   0.000   6.118
  142        1.738   4.380   0.000   6.118
  143        1.738   4.384   0.000   6.122
  144        1.739   4.386   0.000   6.124
  145        1.738   4.382   0.000   6.121
  146        1.737   4.380   0.000   6.117
  147        1.736   4.369   0.000   6.105
  148        1.736   4.368   0.000   6.104
  149        1.740   4.383   0.000   6.123
  150        1.737   4.397   0.000   6.134
  151        1.738   4.375   0.000   6.113
  152        1.738   4.378   0.000   6.116
  153        1.737   4.381   0.000   6.119
  154        1.737   4.372   0.000   6.108
  155        1.737   4.372   0.000   6.109
  156        1.736   4.369   0.000   6.105
  157        1.737   4.367   0.000   6.104
  158        1.738   4.375   0.000   6.113
  159        1.738   4.376   0.000   6.114
  160        1.737   4.368   0.000   6.104
  161        1.736   4.369   0.000   6.105
  162        1.736   4.369   0.000   6.106
  163        1.736   4.367   0.000   6.103
  164        1.737   4.378   0.000   6.115
  165        1.737   4.369   0.000   6.106
  166        1.736   4.369   0.000   6.105
  167        1.737   4.370   0.000   6.106
  168        1.737   4.369   0.000   6.106
  169        1.738   4.375   0.000   6.114
  170        1.737   4.380   0.000   6.117
  171        1.737   4.370   0.000   6.107
  172        1.738   4.388   0.000   6.126
  173        1.737   4.370   0.000   6.107
  174        1.737   4.369   0.000   6.106
  175        1.739   4.381   0.000   6.120
  176        1.737   4.366   0.000   6.103
  177        1.738   4.378   0.000   6.116
  178        1.737   4.368   0.000   6.105
  179        1.738   4.375   0.000   6.113
  180        1.738   4.377   0.000   6.116
  181        1.736   4.369   0.000   6.105
  182        1.738   4.377   0.000   6.114
  183        1.737   4.371   0.000   6.108
  184        1.737   4.380   0.000   6.117
  185        1.737   4.382   0.000   6.119
  186        1.737   4.381   0.000   6.118
  187        1.736   4.370   0.000   6.106
  188        1.738   4.378   0.000   6.115
  189        1.738   4.381   0.000   6.119
  190        1.738   4.380   0.000   6.118
  191        1.739   4.386   0.000   6.124
  192        1.737   4.369   0.000   6.106
  193        1.739   4.388   0.000   6.127
  194        1.737   4.368   0.000   6.104
  195        1.737   4.369   0.000   6.106
  196        1.737   4.380   0.000   6.118
  197        1.737   4.369   0.000   6.106
  198        1.737   4.381   0.000   6.118
  199        1.738   4.380   0.000   6.118
  200        1.738   4.381   0.000   6.119
  201        1.738   4.380   0.000   6.117
  202        1.738   4.378   0.000   6.116
  203        1.738   4.381   0.000   6.118
  204        1.738   4.377   0.000   6.115
  205        1.737   4.376   0.000   6.114
  206        1.737   4.378   0.000   6.115
  207        1.737   4.369   0.000   6.106
  208        1.737   4.382   0.000   6.119
  209        1.737   4.376   0.000   6.114
  210        1.737   4.372   0.000   6.108
  211        1.737   4.371   0.000   6.108
  212        1.737   4.369   0.000   6.105
  213        1.739   4.375   0.000   6.114
  214        1.736   4.367   0.000   6.104
  215        1.739   4.380   0.000   6.119
  216        1.735   4.378   0.000   6.113
  217        1.737   4.372   0.000   6.109
  218        1.737   4.378   0.000   6.115
  219        1.738   4.379   0.000   6.117
  220        1.738   4.380   0.000   6.118
  221        1.738   4.379   0.000   6.117
  222        1.737   4.378   0.000   6.115
  223        1.738   4.381   0.000   6.119
  224        1.738   4.378   0.000   6.115
  225        1.738   4.378   0.000   6.116
  226        1.738   4.378   0.000   6.116
  227        1.737   4.380   0.000   6.117
  228        1.738   4.378   0.000   6.115
  229        1.737   4.376   0.000   6.113
  230        1.736   4.377   0.000   6.113
  231        1.738   4.374   0.000   6.112
  232        1.737   4.373   0.000   6.109
  233        1.738   4.381   0.000   6.119
  234        1.737   4.370   0.000   6.106
  235        1.737   4.369   0.000   6.106
  236        1.738   4.388   0.000   6.127
  237        1.739   4.386   0.000   6.125
  238        1.737   4.379   0.000   6.117
  239        1.738   4.377   0.000   6.116
  240        1.737   4.380   0.000   6.118
  241        1.738   4.377   0.000   6.115
  242        1.738   4.386   0.000   6.125
  243        1.738   4.387   0.000   6.126
  244        1.738   4.380   0.000   6.118
  245        1.738   4.378   0.000   6.116
  246        1.738   4.378   0.000   6.116
  247        1.738   4.385   0.000   6.123
  248        1.738   4.378   0.000   6.116
  249        1.738   4.386   0.000   6.124
  250        1.738   4.377   0.000   6.115
  251        1.738   4.379   0.000   6.117
  252        1.737   4.381   0.000   6.118
  253        1.738   4.379   0.000   6.117
  254        1.739   4.386   0.000   6.125
  255        1.738   4.377   0.000   6.115
  256        1.739   4.386   0.000   6.125
  257        1.738   4.379   0.000   6.117
--------------------------------------------------
tot        345.5391195.393 112.5961653.528
 


 magnetization (x)
 
# of ion       s       p       d       tot
------------------------------------------
    1       -0.000  -0.000   0.000  -0.000
    2       -0.000  -0.000  -0.000  -0.000
    3       -0.000  -0.000  -0.000  -0.000
    4       -0.000  -0.000   0.000   0.000
    5       -0.000  -0.000  -0.000  -0.000
    6        0.000   0.000   0.001   0.001
    7        0.000   0.000   0.010   0.011
    8        0.000   0.000   0.002   0.002
    9        0.000   0.000   0.001   0.001
   10       -0.000   0.000  -0.000  -0.000
   11       -0.000  -0.000   0.000   0.000
   12       -0.000  -0.000  -0.000  -0.000
   13       -0.000  -0.000  -0.000  -0.000
   14        0.000   0.000   0.000   0.000
   15        0.000   0.001   0.046   0.047
   16        0.000   0.000   0.000   0.000
   17       -0.000  -0.000   0.004   0.004
   18       -0.000  -0.000  -0.000  -0.000
   19       -0.000  -0.000  -0.000  -0.000
   20       -0.000  -0.000  -0.000  -0.000
   21        0.000  -0.000  -0.000  -0.000
   22       -0.000  -0.000   0.004   0.004
   23        0.000   0.000   0.021   0.022
   24        0.000   0.000   0.000   0.000
   25        0.000   0.000   0.000   0.000
   26        0.000   0.000  -0.000  -0.000
   27       -0.000  -0.000  -0.000  -0.000
   28        0.000  -0.000  -0.000  -0.000
   29       -0.000  -0.000  -0.000  -0.000
   30        0.000   0.000   0.000   0.000
   31        0.005   0.007   0.887   0.899
   32        0.000   0.000   0.000   0.000
   33       -0.000   0.000   0.001   0.001
   34       -0.000  -0.000  -0.000  -0.000
   35       -0.000  -0.000  -0.000  -0.000
   36       -0.000  -0.000   0.000   0.000
   37       -0.000  -0.000  -0.000  -0.000
   38        0.000   0.000   0.000   0.000
   39       -0.000  -0.000  -0.000  -0.000
   40       -0.000  -0.000  -0.000  -0.000
   41       -0.000  -0.000   0.000   0.000
   42        0.000   0.000   0.000   0.000
   43       -0.000  -0.000   0.000   0.000
   44       -0.000  -0.000  -0.000  -0.000
   45       -0.000  -0.000   0.000   0.000
   46       -0.000  -0.000  -0.000  -0.000
   47       -0.000  -0.000  -0.000  -0.000
   48       -0.000  -0.000   0.000   0.000
   49       -0.000   0.000   0.000   0.000
   50       -0.000  -0.000  -0.000  -0.000
   51       -0.000  -0.000  -0.000  -0.000
   52       -0.000  -0.000   0.000   0.000
   53        0.000  -0.000   0.000   0.000
   54        0.000   0.000   0.000   0.000
   55       -0.000  -0.000  -0.000  -0.000
   56       -0.000  -0.000  -0.000  -0.000
   57       -0.000  -0.000   0.000  -0.000
   58        0.000  -0.000  -0.000  -0.000
   59       -0.000  -0.000   0.000  -0.000
   60       -0.000  -0.000  -0.000  -0.000
   61       -0.000  -0.000   0.000   0.000
   62       -0.000  -0.000  -0.000  -0.000
   63       -0.000  -0.000  -0.003  -0.003
   64       -0.000  -0.000  -0.000  -0.000
   65        0.000  -0.000   0.000   0.000
   66       -0.000  -0.000   0.000  -0.000
   67        0.000   0.000   0.000   0.000
   68       -0.000  -0.000   0.000  -0.000
   69        0.000  -0.000   0.000  -0.000
   70       -0.000  -0.001   0.000  -0.001
   71        0.000   0.000   0.000   0.000
   72       -0.000   0.000   0.000   0.000
   73       -0.000  -0.000   0.000  -0.000
   74       -0.000  -0.000   0.000  -0.000
   75       -0.000  -0.000   0.000  -0.000
   76       -0.000  -0.000   0.000  -0.000
   77       -0.000  -0.000   0.000  -0.000
   78       -0.000  -0.000   0.000  -0.000
   79       -0.000  -0.000   0.000  -0.000
   80       -0.000  -0.000   0.000  -0.000
   81        0.000   0.000   0.000   0.000
   82       -0.000  -0.000   0.000  -0.000
   83       -0.000  -0.000   0.000  -0.000
   84       -0.000  -0.000   0.000  -0.000
   85       -0.000   0.000   0.000   0.000
   86       -0.000  -0.000   0.000  -0.000
   87       -0.000  -0.000   0.000  -0.000
   88       -0.000  -0.000   0.000  -0.000
   89       -0.000  -0.000   0.000  -0.000
   90       -0.000  -0.000   0.000  -0.000
   91       -0.000  -0.000   0.000  -0.000
   92       -0.000  -0.000   0.000  -0.000
   93       -0.000  -0.001   0.000  -0.001
   94       -0.000  -0.000   0.000  -0.000
   95       -0.000  -0.000   0.000  -0.000
   96       -0.000  -0.000   0.000  -0.000
   97       -0.000  -0.000   0.000  -0.000
   98       -0.000  -0.000   0.000  -0.000
   99       -0.001  -0.013   0.000  -0.014
  100       -0.000  -0.000   0.000  -0.000
  101       -0.000  -0.000   0.000  -0.000
  102       -0.000  -0.000   0.000  -0.000
  103       -0.000  -0.000   0.000  -0.000
  104       -0.000  -0.000   0.000  -0.000
  105       -0.000  -0.002   0.000  -0.002
  106       -0.000  -0.000   0.000  -0.000
  107       -0.000   0.000   0.000   0.000
  108       -0.000  -0.000   0.000  -0.000
  109       -0.000  -0.000   0.000  -0.000
  110       -0.000  -0.000   0.000  -0.000
  111       -0.000  -0.000   0.000  -0.000
  112       -0.000  -0.004   0.000  -0.004
  113        0.000   0.000   0.000   0.000
  114       -0.000  -0.000   0.000  -0.000
  115       -0.001  -0.020   0.000  -0.021
  116       -0.000  -0.000   0.000  -0.000
  117       -0.000  -0.000   0.000  -0.000
  118        0.000   0.000   0.000   0.000
  119       -0.000  -0.000   0.000  -0.000
  120       -0.000  -0.001   0.000  -0.001
  121        0.000  -0.000   0.000  -0.000
  122       -0.000  -0.000   0.000  -0.000
  123       -0.000  -0.000   0.000  -0.000
  124       -0.000  -0.000   0.000  -0.000
  125       -0.000  -0.000   0.000  -0.000
  126       -0.000  -0.000   0.000  -0.000
  127       -0.000  -0.000   0.000  -0.000
  128       -0.000  -0.000   0.000  -0.000
  129       -0.000  -0.000   0.000  -0.000
  130        0.000   0.000   0.000   0.000
  131       -0.000  -0.000   0.000  -0.000
  132        0.000   0.000   0.000   0.000
  133        0.000  -0.000   0.000  -0.000
  134       -0.000  -0.001   0.000  -0.001
  135       -0.000   0.000   0.000   0.000
  136        0.000   0.000   0.000   0.000
  137       -0.000   0.000   0.000   0.000
  138        0.000   0.000   0.000   0.000
  139       -0.000  -0.000   0.000  -0.000
  140        0.000   0.001   0.000   0.001
  141        0.000  -0.000   0.000  -0.000
  142        0.000  -0.000   0.000  -0.000
  143        0.000  -0.000   0.000  -0.000
  144       -0.000  -0.002   0.000  -0.003
  145        0.000   0.000   0.000   0.000
  146        0.000  -0.000   0.000  -0.000
  147       -0.000  -0.000   0.000  -0.000
  148        0.000   0.000   0.000   0.000
  149       -0.000  -0.000   0.000  -0.000
  150       -0.000   0.003   0.000   0.002
  151        0.000  -0.000   0.000  -0.000
  152        0.000  -0.000   0.000  -0.000
  153        0.000   0.000   0.000   0.000
  154       -0.000  -0.000   0.000  -0.000
  155       -0.000  -0.000   0.000  -0.000
  156       -0.000  -0.000   0.000  -0.000
  157       -0.000  -0.000   0.000  -0.000
  158       -0.000  -0.000   0.000  -0.000
  159        0.000  -0.000   0.000  -0.000
  160        0.000  -0.000   0.000  -0.000
  161        0.000  -0.000   0.000  -0.000
  162        0.000   0.000   0.000   0.000
  163       -0.000  -0.000   0.000  -0.000
  164        0.000  -0.000   0.000  -0.000
  165       -0.000  -0.000   0.000  -0.000
  166       -0.000  -0.000   0.000  -0.000
  167       -0.000  -0.000   0.000  -0.000
  168       -0.000  -0.000   0.000  -0.000
  169       -0.000  -0.000   0.000  -0.000
  170       -0.000  -0.000   0.000  -0.000
  171       -0.000  -0.000   0.000  -0.000
  172       -0.000  -0.000   0.000  -0.000
  173       -0.000  -0.000   0.000  -0.000
  174       -0.000  -0.000   0.000  -0.000
  175       -0.000  -0.000   0.000  -0.000
  176       -0.000  -0.000   0.000  -0.000
  177       -0.000  -0.000   0.000  -0.000
  178        0.000   0.000   0.000   0.000
  179       -0.000  -0.000   0.000  -0.000
  180       -0.000  -0.000   0.000  -0.000
  181       -0.000  -0.000   0.000  -0.000
  182       -0.000  -0.000   0.000  -0.000
  183       -0.000  -0.000   0.000  -0.000
  184       -0.000  -0.000   0.000  -0.000
  185        0.000   0.000   0.000   0.000
  186       -0.000  -0.000   0.000  -0.000
  187       -0.000  -0.000   0.000  -0.000
  188       -0.000  -0.000   0.000  -0.000
  189        0.000  -0.000   0.000   0.000
  190       -0.000  -0.000   0.000  -0.000
  191       -0.000  -0.000   0.000  -0.000
  192       -0.000  -0.000   0.000  -0.000
  193       -0.000  -0.000   0.000  -0.000
  194       -0.000  -0.000   0.000  -0.000
  195       -0.000  -0.000   0.000  -0.000
  196       -0.000  -0.000   0.000  -0.000
  197       -0.000  -0.000   0.000  -0.000
  198        0.000  -0.000   0.000  -0.000
  199       -0.000  -0.000   0.000  -0.000
  200       -0.000  -0.000   0.000  -0.000
  201       -0.000  -0.000   0.000  -0.000
  202       -0.000  -0.000   0.000  -0.000
  203        0.000   0.000   0.000   0.000
  204       -0.000  -0.000   0.000  -0.000
  205       -0.000  -0.000   0.000  -0.000
  206       -0.000  -0.007   0.000  -0.007
  207       -0.000  -0.000   0.000  -0.000
  208       -0.000  -0.000   0.000  -0.000
  209       -0.000  -0.000   0.000  -0.000
  210       -0.000  -0.000   0.000  -0.000
  211        0.000   0.000   0.000   0.000
  212       -0.000  -0.000   0.000  -0.000
  213       -0.000   0.000   0.000   0.000
  214        0.000   0.000   0.000   0.000
  215       -0.000   0.000   0.000   0.000
  216        0.000   0.000   0.000   0.000
  217       -0.000  -0.000   0.000  -0.000
  218        0.000  -0.000   0.000  -0.000
  219       -0.000  -0.000   0.000  -0.000
  220        0.000   0.000   0.000   0.000
  221        0.000   0.000   0.000   0.000
  222       -0.000  -0.000   0.000  -0.000
  223       -0.000  -0.000   0.000  -0.000
  224        0.000   0.000   0.000   0.000
  225       -0.000  -0.000   0.000  -0.000
  226       -0.000  -0.000   0.000  -0.000
  227        0.000   0.000   0.000   0.000
  228       -0.000  -0.000   0.000  -0.000
  229       -0.000  -0.000   0.000  -0.000
  230       -0.000   0.003   0.000   0.003
  231        0.000  -0.000   0.000  -0.000
  232        0.000  -0.000   0.000  -0.000
  233       -0.000  -0.000   0.000  -0.000
  234       -0.000  -0.000   0.000  -0.000
  235       -0.000  -0.000   0.000  -0.000
  236        0.000   0.000   0.000   0.000
  237       -0.000  -0.000   0.000  -0.000
  238       -0.000  -0.000   0.000  -0.000
  239       -0.000  -0.000   0.000  -0.000
  240       -0.000  -0.000   0.000  -0.000
  241        0.000   0.000   0.000   0.000
  242       -0.000  -0.000   0.000  -0.000
  243       -0.000   0.000   0.000   0.000
  244       -0.000  -0.000   0.000  -0.000
  245       -0.000  -0.000   0.000  -0.000
  246       -0.000  -0.000   0.000  -0.000
  247        0.000   0.000   0.000   0.000
  248       -0.000  -0.000   0.000  -0.000
  249        0.000   0.000   0.000   0.000
  250       -0.000  -0.000   0.000  -0.000
  251       -0.000  -0.000   0.000  -0.000
  252        0.000   0.000   0.000   0.000
  253       -0.000  -0.000   0.000  -0.000
  254        0.000   0.000   0.000   0.000
  255       -0.000  -0.000   0.000  -0.000
  256       -0.000  -0.000   0.000  -0.000
  257        0.000  -0.000   0.000  -0.000
--------------------------------------------------
tot          0.002  -0.041   0.976   0.936
 

 total amount of memory used by VASP MPI-rank0   291467. kBytes
=======================================================================

   base      :      30000. kBytes
   nonlr-proj:      49432. kBytes
   fftplans  :      27976. kBytes
   grid      :      34041. kBytes
   one-center:       1026. kBytes
   wavefun   :     148992. kBytes
 
  
  
 General timing and accounting informations for this job:
 ========================================================
  
                  Total CPU time used (sec):     5200.498
                            User time (sec):     4786.537
                          System time (sec):      413.961
                         Elapsed time (sec):     5250.102
  
                   Maximum memory used (kb):      633888.
                   Average memory used (kb):           0.
  
                          Minor page faults:       325640
                          Major page faults:           12
                 Voluntary context switches:        36077
