 vasp.5.4.4.18Apr17-6-g9f103f2a35 (build Jul 16 2019 12:12:28) complex          
  
 executed on             LinuxIFC date 2020.01.06  10:18:04
 running on   96 total cores
 distrk:  each k-point on   96 cores,    1 groups
 distr:  one band on NCORES_PER_BAND=  12 cores,    8 groups


--------------------------------------------------------------------------------------------------------


 INCAR:
 POTCAR:    PAW_PBE Li_sv 10Sep2004               
 POTCAR:    PAW_PBE Ti_pv 07Sep2000               
 POTCAR:    PAW_PBE O 08Apr2002                   
 POTCAR:    PAW_PBE F 08Apr2002                   
 POTCAR:    PAW_PBE Li_sv 10Sep2004               
   VRHFIN =Li: 1s2s2p                                                           
   LEXCH  = PE                                                                  
   EATOM  =   202.7858 eV,   14.9043 Ry                                         
                                                                                
   TITEL  = PAW_PBE Li_sv 10Sep2004                                             
   LULTRA =        F    use ultrasoft PP ?                                      
   IUNSCR =        0    unscreen: 0-lin 1-nonlin 2-no                           
   RPACOR =    0.000    partial core radius                                     
   POMASS =    7.010; ZVAL   =    3.000    mass and valenz                      
   RCORE  =    1.700    outmost cutoff radius                                   
   RWIGS  =    2.050; RWIGS  =    1.085    wigner-seitz radius (au A)           
   ENMAX  =  499.034; ENMIN  =  374.276 eV                                      
   ICORE  =        2    local potential                                         
   LCOR   =        T    correct aug charges                                     
   LPAW   =        T    paw PP                                                  
   EAUG   =  628.945                                                            
   RMAX   =    1.732    core radius for proj-oper                               
   RAUG   =    1.300    factor for augmentation sphere                          
   RDEP   =    1.728    radius for radial grids                                 
   RDEPT  =    1.329    core radius for aug-charge                              
                                                                                
   Atomic configuration                                                         
    4 entries                                                                   
     n  l   j            E        occ.                                          
     1  0  0.50       -51.8549   2.0000                                         
     2  0  0.50        -2.8742   1.0000                                         
     2  1  0.50        -1.3606   0.0000                                         
     3  2  1.50        -1.3606   0.0000                                         
   Description                                                                  
     l       E           TYP  RCUT    TYP  RCUT                                 
     0    -51.8548813     23  1.400                                             
     0     -2.8742052     23  1.700                                             
     1     -1.3605826     23  1.400                                             
     2     -1.3605826     23  1.400                                             
  local pseudopotential read in
  atomic valenz-charges read in
  non local Contribution for L=           0  read in
    real space projection operators read in
  non local Contribution for L=           0  read in
    real space projection operators read in
  non local Contribution for L=           1  read in
    real space projection operators read in
    PAW grid and wavefunctions read in
 
   number of l-projection  operators is LMAX  =           3
   number of lm-projection operators is LMMAX =           5
 
 POTCAR:    PAW_PBE Ti_pv 07Sep2000               
   VRHFIN =Ti: d3 s1                                                            
   LEXCH  = PE                                                                  
   EATOM  =  1042.5995 eV,   76.6289 Ry                                         
                                                                                
   TITEL  = PAW_PBE Ti_pv 07Sep2000                                             
   LULTRA =        F    use ultrasoft PP ?                                      
   IUNSCR =        1    unscreen: 0-lin 1-nonlin 2-no                           
   RPACOR =    2.200    partial core radius                                     
   POMASS =   47.880; ZVAL   =   10.000    mass and valenz                      
   RCORE  =    2.500    outmost cutoff radius                                   
   RWIGS  =    2.500; RWIGS  =    1.323    wigner-seitz radius (au A)           
   ENMAX  =  222.335; ENMIN  =  166.751 eV                                      
   RCLOC  =    1.701    cutoff for local pot                                    
   LCOR   =        T    correct aug charges                                     
   LPAW   =        T    paw PP                                                  
   EAUG   =  482.848                                                            
   DEXC   =    0.000                                                            
   RMAX   =    2.564    core radius for proj-oper                               
   RAUG   =    1.300    factor for augmentation sphere                          
   RDEP   =    2.538    radius for radial grids                                 
   RDEPT  =    1.952    core radius for aug-charge                              
                                                                                
   Atomic configuration                                                         
    8 entries                                                                   
     n  l   j            E        occ.                                          
     1  0  0.50     -4865.3608   2.0000                                         
     2  0  0.50      -533.1368   2.0000                                         
     2  1  1.50      -440.5031   6.0000                                         
     3  0  0.50       -59.3186   2.0000                                         
     3  1  1.50       -35.7012   6.0000                                         
     3  2  2.50        -1.9157   3.0000                                         
     4  0  0.50        -3.7291   1.0000                                         
     4  3  2.50        -1.3606   0.0000                                         
   Description                                                                  
     l       E           TYP  RCUT    TYP  RCUT                                 
     1    -35.7012140     23  2.300                                             
     1     -1.3605826     23  2.300                                             
     2     -1.9156996     23  2.500                                             
     2     -0.4063033     23  2.500                                             
     0     -3.7290856     23  2.500                                             
     0     20.4087390     23  2.500                                             
  local pseudopotential read in
  partial core-charges read in
  partial kinetic energy density read in
  atomic valenz-charges read in
  non local Contribution for L=           1  read in
    real space projection operators read in
  non local Contribution for L=           1  read in
    real space projection operators read in
  non local Contribution for L=           2  read in
    real space projection operators read in
  non local Contribution for L=           2  read in
    real space projection operators read in
  non local Contribution for L=           0  read in
    real space projection operators read in
  non local Contribution for L=           0  read in
    real space projection operators read in
    PAW grid and wavefunctions read in
 
   number of l-projection  operators is LMAX  =           6
   number of lm-projection operators is LMMAX =          18
 
 POTCAR:    PAW_PBE O 08Apr2002                   
   VRHFIN =O: s2p4                                                              
   LEXCH  = PE                                                                  
   EATOM  =   432.3788 eV,   31.7789 Ry                                         
                                                                                
   TITEL  = PAW_PBE O 08Apr2002                                                 
   LULTRA =        F    use ultrasoft PP ?                                      
   IUNSCR =        1    unscreen: 0-lin 1-nonlin 2-no                           
   RPACOR =    1.200    partial core radius                                     
   POMASS =   16.000; ZVAL   =    6.000    mass and valenz                      
   RCORE  =    1.520    outmost cutoff radius                                   
   RWIGS  =    1.550; RWIGS  =    0.820    wigner-seitz radius (au A)           
   ENMAX  =  400.000; ENMIN  =  300.000 eV                                      
   ICORE  =        2    local potential                                         
   LCOR   =        T    correct aug charges                                     
   LPAW   =        T    paw PP                                                  
   EAUG   =  605.392                                                            
   DEXC   =    0.000                                                            
   RMAX   =    1.553    core radius for proj-oper                               
   RAUG   =    1.300    factor for augmentation sphere                          
   RDEP   =    1.550    radius for radial grids                                 
   RDEPT  =    1.329    core radius for aug-charge                              
                                                                                
   Atomic configuration                                                         
    4 entries                                                                   
     n  l   j            E        occ.                                          
     1  0  0.50      -514.6923   2.0000                                         
     2  0  0.50       -23.9615   2.0000                                         
     2  1  0.50        -9.0305   4.0000                                         
     3  2  1.50        -9.5241   0.0000                                         
   Description                                                                  
     l       E           TYP  RCUT    TYP  RCUT                                 
     0    -23.9615318     23  1.200                                             
     0     -9.5240782     23  1.200                                             
     1     -9.0304911     23  1.520                                             
     1      8.1634956     23  1.520                                             
     2     -9.5240782      7  1.500                                             
  local pseudopotential read in
  partial core-charges read in
  partial kinetic energy density read in
  kinetic energy density of atom read in
  atomic valenz-charges read in
  non local Contribution for L=           0  read in
    real space projection operators read in
  non local Contribution for L=           0  read in
    real space projection operators read in
  non local Contribution for L=           1  read in
    real space projection operators read in
  non local Contribution for L=           1  read in
    real space projection operators read in
    PAW grid and wavefunctions read in
 
   number of l-projection  operators is LMAX  =           4
   number of lm-projection operators is LMMAX =           8
 
 POTCAR:    PAW_PBE F 08Apr2002                   
   VRHFIN =F: s2p5                                                              
   LEXCH  = PE                                                                  
   EATOM  =   659.6475 eV,   48.4827 Ry                                         
                                                                                
   TITEL  = PAW_PBE F 08Apr2002                                                 
   LULTRA =        F    use ultrasoft PP ?                                      
   IUNSCR =        1    unscreen: 0-lin 1-nonlin 2-no                           
   RPACOR =    1.200    partial core radius                                     
   POMASS =   18.998; ZVAL   =    7.000    mass and valenz                      
   RCORE  =    1.520    outmost cutoff radius                                   
   RWIGS  =    1.500; RWIGS  =    0.794    wigner-seitz radius (au A)           
   ENMAX  =  400.000; ENMIN  =  300.000 eV                                      
   ICORE  =        2    local potential                                         
   LCOR   =        T    correct aug charges                                     
   LPAW   =        T    paw PP                                                  
   EAUG   =  613.614                                                            
   RMAX   =    1.555    core radius for proj-oper                               
   RAUG   =    1.300    factor for augmentation sphere                          
   RDEP   =    1.539    radius for radial grids                                 
   RDEPT  =    1.299    core radius for aug-charge                              
                                                                                
   Atomic configuration                                                         
    4 entries                                                                   
     n  l   j            E        occ.                                          
     1  0  0.50      -663.3661   2.0000                                         
     2  0  0.50       -29.8995   2.0000                                         
     2  1  0.50       -11.1114   5.0000                                         
     3  2  1.50       -10.8847   0.0000                                         
   Description                                                                  
     l       E           TYP  RCUT    TYP  RCUT                                 
     0    -29.8995018     23  1.200                                             
     0     -9.5240782     23  1.200                                             
     1    -11.1113914     23  1.520                                             
     1      1.3605826     23  1.520                                             
     2    -10.8846608      7  1.500                                             
  local pseudopotential read in
  partial core-charges read in
  partial kinetic energy density read in
  atomic valenz-charges read in
  non local Contribution for L=           0  read in
    real space projection operators read in
  non local Contribution for L=           0  read in
    real space projection operators read in
  non local Contribution for L=           1  read in
    real space projection operators read in
  non local Contribution for L=           1  read in
    real space projection operators read in
    PAW grid and wavefunctions read in
 
   number of l-projection  operators is LMAX  =           4
   number of lm-projection operators is LMMAX =           8
 
 Optimization of the real space projectors (new method)

 maximal supplied QI-value         = 22.11
 optimisation between [QCUT,QGAM] = [ 11.28, 22.77] = [ 35.61,145.23] Ry 
 Optimized for a Real-space Cutoff    1.31 Angstroem

   l    n(q)    QCUT    max X(q) W(low)/X(q) W(high)/X(q)  e(spline) 
   0      9    11.276    10.506    0.19E-04    0.17E-04    0.32E-07
   0      9    11.276     8.367    0.38E-04    0.40E-04    0.65E-07
   1      8    11.276     8.983    0.55E-04    0.98E-04    0.20E-06
 Optimization of the real space projectors (new method)

 maximal supplied QI-value         = 15.12
 optimisation between [QCUT,QGAM] = [ 11.34, 22.83] = [ 36.00,145.93] Ry 
 Optimized for a Real-space Cutoff    1.56 Angstroem

   l    n(q)    QCUT    max X(q) W(low)/X(q) W(high)/X(q)  e(spline) 
   1     10    11.338     4.216    0.27E-04    0.12E-04    0.66E-07
   1     10    11.338     5.422    0.81E-04    0.24E-04    0.19E-06
   2     10    11.338    72.084    0.64E-04    0.21E-03    0.51E-06
   2     10    11.338    65.965    0.63E-04    0.21E-03    0.50E-06
   0     11    11.338    41.531    0.33E-04    0.54E-04    0.13E-06
   0     11    11.338    16.290    0.26E-04    0.41E-04    0.11E-06
 Optimization of the real space projectors (new method)

 maximal supplied QI-value         = 24.76
 optimisation between [QCUT,QGAM] = [ 11.39, 22.77] = [ 36.31,145.25] Ry 
 Optimized for a Real-space Cutoff    1.20 Angstroem

   l    n(q)    QCUT    max X(q) W(low)/X(q) W(high)/X(q)  e(spline) 
   0      8    11.387    20.381    0.89E-04    0.31E-03    0.27E-06
   0      8    11.387    15.268    0.93E-04    0.32E-03    0.29E-06
   1      8    11.387     5.964    0.53E-04    0.28E-03    0.29E-06
   1      8    11.387     5.382    0.37E-04    0.22E-03    0.26E-06
 Optimization of the real space projectors (new method)

 maximal supplied QI-value         = 24.76
 optimisation between [QCUT,QGAM] = [ 11.39, 22.77] = [ 36.31,145.25] Ry 
 Optimized for a Real-space Cutoff    1.20 Angstroem

   l    n(q)    QCUT    max X(q) W(low)/X(q) W(high)/X(q)  e(spline) 
   0      8    11.387    14.049    0.69E-04    0.23E-03    0.18E-06
   0      8    11.387     8.945    0.88E-04    0.30E-03    0.26E-06
   1      8    11.387     7.086    0.62E-04    0.27E-03    0.27E-06
   1      8    11.387     6.747    0.46E-04    0.23E-03    0.25E-06

 ----------------------------------------------------------------------------- 
|                                                                             |
|  ADVICE TO THIS USER RUNNING 'VASP/VAMP'   (HEAR YOUR MASTER'S VOICE ...):  |
|                                                                             |
|      You enforced a specific xc-type in the INCAR file,                     |
|      a different type was found on the POTCAR file                          |
|          I HOPE YOU KNOW, WHAT YOU ARE  DOING                               |
|                                                                             |
 ----------------------------------------------------------------------------- 

  PAW_PBE Li_sv 10Sep2004               :
 energy of atom  1       EATOM= -202.7858
 kinetic energy error for atom=    0.0143 (will be added to EATOM!!)
  PAW_PBE Ti_pv 07Sep2000               :
 energy of atom  2       EATOM=-1042.5995
 kinetic energy error for atom=    0.0024 (will be added to EATOM!!)
  PAW_PBE O 08Apr2002                   :
 energy of atom  3       EATOM= -432.3788
 kinetic energy error for atom=    0.0224 (will be added to EATOM!!)
  PAW_PBE F 08Apr2002                   :
 energy of atom  4       EATOM= -659.6475
 kinetic energy error for atom=    0.0354 (will be added to EATOM!!)
 
 
 POSCAR: config 03                               
  positions in direct lattice
  velocities in cartesian coordinates
 exchange correlation table for  LEXCH =       14
   RHO(1)=    0.500       N(1)  =     2000
   RHO(2)=  100.500       N(2)  =     4000

 VTST: version 3.2, (02/03/18)

 CHAIN: initializing optimizer
 
 OPT: Using VASP QUASI-newton optimizer
 CHAIN: Read ICHAIN            0
 
 POSCAR: config 03                               
  positions in direct lattice
  velocities in cartesian coordinates
 


--------------------------------------------------------------------------------------------------------


 ion  position               nearest neighbor table
   1  0.129  0.135  0.641-  96 2.20
   2  0.995  0.995  0.995- 118 1.86 103 1.89  68 1.90 130 2.03 212 2.03 171 2.03
   3  0.999  0.993  0.493- 119 1.82  67 1.82 193 1.95 172 1.96 213 2.00 131 2.05
   4  0.006  0.495  0.997-  89 1.84 117 1.86 138 1.93 132 1.97 194 2.02 214 2.02
   5  0.994  0.502  0.507-  66 1.84 104 1.85 223 1.92 215 1.94 173 2.02 137 2.03
   6  0.494  0.994  1.000- 101 1.83 121 1.84 140 1.95 133 1.96 216 2.01 174 2.03
   7  0.501  0.008  0.500- 112 1.77 191 1.91 134 1.91 139 1.91 175 1.93 225 2.02
   8  0.504  0.496  0.996-  90 1.88  70 1.88 120 1.88 192 2.03 135 2.03 217 2.05
   9  0.492  0.499  0.495- 102 1.81  69 1.85 224 1.97 218 1.98 136 2.01 176 2.05
  10  0.006  0.003  0.256-  91 1.84  67 1.86 219 1.93 227 1.97 130 2.00 197 2.05
  11  1.000  0.006  0.757-  68 1.78 113 1.87 177 1.96 198 1.97 228 2.01 131 2.06
  12  0.994  0.493  0.251- 122 1.82 107 1.84 137 1.93 132 1.97 178 2.03 220 2.03
  13  0.993  0.498  0.742-  66 1.81 108 1.82 226 1.95 221 1.97 138 2.02 179 2.04
  14  0.506  0.008  0.250- 114 1.81  92 1.84 133 1.92 139 1.97 195 2.00 231 2.04
  15  0.493  0.005  0.751- 105 1.82 115 1.83 140 1.93 134 1.98 232 2.01 180 2.02
  16  0.493  0.497  0.257-  69 1.83 106 1.84 229 1.95 222 2.00 135 2.02 181 2.03
  17  0.501  0.504  0.758-  70 1.80 116 1.87 182 1.94 196 1.97 230 2.04 136 2.06
  18  0.996  0.257  0.002- 117 1.82 110 1.87 141 1.92 146 1.99 183 2.01 212 2.02
  19  0.999  0.248  0.494-  74 1.87 202 2.01 223 2.02 213 2.02 142 2.03 184 2.04
  20  0.998  0.758  0.006- 118 1.82  71 1.85 203 1.94 185 1.97 148 2.04 214 2.05
  21  0.998  0.757  0.506- 119 1.82  72 1.84 204 1.94 186 1.97 215 2.01 147 2.02
  22  0.495  0.258  0.001- 120 1.80 109 1.85 150 1.96 143 1.97 187 2.03 216 2.07
  23  0.509  0.246  0.499-  93 1.78 112 1.91 144 1.93 149 1.94 224 1.97 199 2.01
  24  0.507  0.756  0.999-  94 1.82 121 1.84 152 1.94 145 1.98 217 2.01 200 2.02
  25  0.507  0.753  0.509-  73 1.79  95 1.83 225 1.95 218 1.95 201 2.01 151 2.07
  26  0.999  0.257  0.257-  74 1.78 122 1.83 209 1.96 188 1.97 219 2.03 141 2.04
  27  0.006  0.242  0.748- 113 1.82  96 1.86 142 1.94 146 1.94 210 2.02 226 2.03
  28  0.007  0.749  0.243-  71 1.82  97 1.84 220 1.93 227 1.98 147 2.04 211 2.05
  29  0.993  0.750  0.743- 111 1.83  72 1.83 228 1.95 221 1.97 189 2.02 148 2.02
  30  0.508  0.242  0.251-  98 1.81 114 1.83 143 1.93 149 1.96 229 2.01 205 2.03
  31  0.507  0.243  0.750-  99 1.83 115 1.85 150 1.92 144 1.97 230 2.01 206 2.03
  32  0.507  0.752  0.252- 100 1.79 151 1.92 231 1.93 222 1.94 145 1.94 207 2.00
  33  0.502  0.742  0.743- 116 1.80  73 1.84 190 1.93 208 1.97 152 2.02 232 2.06
  34  0.256  0.999  0.006-  75 1.84 101 1.85 246 1.93 233 1.96 171 2.01 157 2.06
  35  0.250  0.993  0.507- 128 1.81  76 1.87 172 1.94 191 1.98 156 2.01 234 2.01
  36  0.243  0.508  0.997- 123 1.83  89 1.84 159 1.94 153 1.97 192 2.02 245 2.03
  37  0.254  0.495  0.507-  77 1.85 102 1.87 127 1.89 173 2.02 158 2.04 235 2.04
  38  0.757  0.000  0.994- 103 1.79  81 1.87 236 1.95 249 1.95 154 2.04 174 2.04
  39  0.751  0.007  0.494- 124 1.82  80 1.83 193 1.93 175 1.99 155 2.00 250 2.02
  40  0.742  0.501  0.005-  90 1.80  78 1.86 237 1.95 247 1.96 161 2.03 194 2.05
  41  0.756  0.498  0.505- 104 1.84  79 1.85 248 1.94 238 1.98 160 2.02 176 2.03
  42  0.245  0.003  0.244-  75 1.84  91 1.84 239 1.93 252 1.96 195 2.05 156 2.05
  43  0.258  0.997  0.744- 105 1.82  76 1.86 253 1.91 240 1.98 157 2.00 177 2.04
  44  0.255  0.492  0.252- 129 1.83 106 1.83 158 1.93 153 1.97 178 2.03 241 2.04
  45  0.247  0.507  0.742-  77 1.79 125 1.83 179 1.94 196 1.97 251 2.04 159 2.05
  46  0.745  0.000  0.256-  92 1.85  80 1.85 256 1.94 242 1.95 197 2.00 154 2.00
  47  0.748  0.006  0.756-  81 1.82 126 1.83 180 1.94 198 1.97 257 2.03 155 2.06
  48  0.757  0.499  0.243-  78 1.82 107 1.84 243 1.96 254 1.96 181 2.04 160 2.04
  49  0.757  0.498  0.743- 108 1.83  79 1.83 255 1.94 244 1.98 161 2.03 182 2.03
  50  0.257  0.251  0.006- 109 1.83  82 1.85 245 1.93 233 1.97 168 2.04 183 2.04
  51  0.254  0.256  0.505- 127 1.79  83 1.89 199 1.95 184 1.97 167 2.01 234 2.06
  52  0.252  0.743  0.993- 123 1.81  86 1.84 200 1.94 185 1.96 162 2.04 246 2.04
  53  0.252  0.755  0.493-  85 1.82 128 1.88 201 1.95 186 1.97 235 1.98 163 2.04
  54  0.757  0.251  0.006- 110 1.81  84 1.85 247 1.94 236 1.94 170 2.02 187 2.04
  55  0.744  0.242  0.498- 124 1.83  93 1.86 169 1.93 202 1.93 164 1.97 248 2.02
  56  0.742  0.750  0.994-  94 1.82  88 1.83 237 1.94 249 1.95 203 2.01 165 2.04
  57  0.742  0.752  0.494-  95 1.82  87 1.86 250 1.94 238 1.95 166 2.02 204 2.02
  58  0.251  0.257  0.243- 129 1.82  82 1.83 205 1.96 188 1.96 239 2.04 167 2.05
  59  0.247  0.251  0.744-  83 1.83  96 1.88 251 1.91 240 1.98 206 2.01 168 2.01
  60  0.244  0.749  0.256-  97 1.82  85 1.85 241 1.93 252 1.97 162 2.02 207 2.06
  61  0.248  0.742  0.757- 125 1.81  86 1.83 189 1.93 208 1.97 163 2.03 253 2.05
  62  0.743  0.251  0.242-  84 1.80  98 1.83 254 1.93 242 1.95 209 2.01 169 2.05
  63  0.744  0.242  0.750- 126 1.82  99 1.84 170 1.93 164 1.98 210 2.02 255 2.03
  64  0.746  0.750  0.257-  87 1.81 100 1.90 243 1.93 256 1.95 211 1.98 165 2.02
  65  0.757  0.751  0.757- 111 1.82  88 1.84 257 1.93 244 1.96 190 2.03 166 2.05
  66  0.007  0.501  0.625-  13 1.81   5 1.84
  67  0.993  0.009  0.376-   3 1.82  10 1.86
  68  0.996  0.006  0.872-  11 1.78   2 1.90
  69  0.500  0.495  0.375-  16 1.83   9 1.85
  70  0.495  0.498  0.874-  17 1.80   8 1.88
  71  0.999  0.749  0.125-  28 1.82  20 1.85
  72  0.001  0.749  0.624-  29 1.83  21 1.84
  73  0.501  0.755  0.625-  25 1.79  33 1.84
  74  0.998  0.243  0.372-  26 1.78  19 1.87
  75  0.253  0.006  0.125-  42 1.84  34 1.84
  76  0.242  0.014  0.626-  43 1.86  35 1.87
  77  0.240  0.499  0.626-  45 1.79  37 1.85
  78  0.751  0.493  0.125-  48 1.82  40 1.86
  79  0.746  0.494  0.624-  49 1.83  41 1.85
  80  0.753  0.998  0.376-  39 1.83  46 1.85
  81  0.749  0.998  0.873-  47 1.82  38 1.87
  82  0.249  0.248  0.125-  58 1.83  50 1.85
  83  0.258  0.240  0.627-  59 1.83  51 1.89
  84  0.743  0.257  0.125-  62 1.80  54 1.85
  85  0.254  0.750  0.375-  53 1.82  60 1.85
  86  0.251  0.756  0.875-  61 1.83  52 1.84
  87  0.752  0.753  0.374-  64 1.81  57 1.86
  88  0.748  0.753  0.875-  56 1.83  65 1.84
  89  0.125  0.504  0.995-  36 1.84   4 1.84
  90  0.625  0.507  0.999-  40 1.80   8 1.88
  91  0.125  0.003  0.254-  10 1.84  42 1.84
  92  0.625  0.000  0.252-  14 1.84  46 1.85
  93  0.624  0.255  0.497-  23 1.78  55 1.86
  94  0.624  0.742  0.003-  56 1.82  24 1.82
  95  0.624  0.761  0.497-  57 1.82  25 1.83
  96  0.126  0.239  0.738-  27 1.86  59 1.88   1 2.20
  97  0.126  0.752  0.251-  60 1.82  28 1.84
  98  0.625  0.246  0.259-  30 1.81  62 1.83
  99  0.625  0.251  0.747-  31 1.83  63 1.84
 100  0.623  0.754  0.250-  32 1.79  64 1.90
 101  0.375  0.000  0.994-   6 1.83  34 1.85
 102  0.375  0.503  0.503-   9 1.81  37 1.87
 103  0.873  0.002  0.002-  38 1.79   2 1.89
 104  0.875  0.501  0.499-  41 1.84   5 1.85
 105  0.376  0.995  0.749-  43 1.82  15 1.82
 106  0.374  0.497  0.250-  44 1.83  16 1.84
 107  0.875  0.499  0.253-  48 1.84  12 1.84
 108  0.875  0.505  0.747-  13 1.82  49 1.83
 109  0.376  0.248  0.000-  50 1.83  22 1.85
 110  0.874  0.248  0.002-  54 1.81  18 1.87
 111  0.875  0.745  0.750-  65 1.82  29 1.83
 112  0.508  0.122  0.497-   7 1.77  23 1.91
 113  0.998  0.125  0.734-  27 1.82  11 1.87
 114  0.495  0.125  0.261-  14 1.81  30 1.83
 115  0.500  0.123  0.746-  15 1.83  31 1.85
 116  0.500  0.625  0.749-  33 1.80  17 1.87
 117  0.000  0.375  0.001-  18 1.82   4 1.86
 118  0.002  0.875  0.998-  20 1.82   2 1.86
 119  0.998  0.875  0.496-   3 1.82  21 1.82
 120  0.502  0.374  0.006-  22 1.80   8 1.88
 121  0.504  0.876  0.002-  24 1.84   6 1.84
 122  0.006  0.375  0.247-  12 1.82  26 1.83
 123  0.255  0.626  0.999-  52 1.81  36 1.83
 124  0.742  0.124  0.503-  39 1.82  55 1.83
 125  0.249  0.625  0.753-  61 1.81  45 1.83
 126  0.752  0.124  0.745-  63 1.82  47 1.83
 127  0.248  0.372  0.499-  51 1.79  37 1.89
 128  0.251  0.876  0.505-  35 1.81  53 1.88
 129  0.243  0.374  0.255-  58 1.82  44 1.83
 130  0.002  0.999  0.126-  10 2.00   2 2.03
 131  0.013  0.992  0.625-   3 2.05  11 2.06
 132  1.000  0.508  0.124-   4 1.97  12 1.97
 133  0.496  0.005  0.126-  14 1.92   6 1.96
 134  0.504  0.992  0.623-   7 1.91  15 1.98
 135  0.501  0.507  0.127-  16 2.02   8 2.03
 136  0.506  0.499  0.625-   9 2.01  17 2.06
 137  0.004  0.501  0.376-  12 1.93   5 2.03
 138  0.996  0.500  0.873-   4 1.93  13 2.02
 139  0.499  0.991  0.377-   7 1.91  14 1.97
 140  0.511  0.002  0.874-  15 1.93   6 1.95
 141  0.006  0.248  0.126-  18 1.92  26 2.04
 142  0.995  0.263  0.624-  27 1.94  19 2.03
 143  0.506  0.240  0.126-  30 1.93  22 1.97
 144  0.493  0.249  0.623-  23 1.93  31 1.97
 145  0.495  0.747  0.127-  32 1.94  24 1.98
 146  0.001  0.245  0.874-  27 1.94  18 1.99
 147  0.995  0.749  0.375-  21 2.02  28 2.04
 148  0.002  0.749  0.874-  29 2.02  20 2.04
 149  0.493  0.261  0.376-  23 1.94  30 1.96
 150  0.502  0.250  0.874-  31 1.92  22 1.96
 151  0.494  0.753  0.376-  32 1.92  25 2.07
 152  0.499  0.751  0.874-  24 1.94  33 2.02
 153  0.246  0.497  0.125-  44 1.97  36 1.97
 154  0.747  0.004  0.126-  46 2.00  38 2.04
 155  0.743  0.996  0.623-  39 2.00  47 2.06
 156  0.256  0.998  0.376-  35 2.01  42 2.05
 157  0.246  0.992  0.873-  43 2.00  34 2.06
 158  0.247  0.508  0.376-  44 1.93  37 2.04
 159  0.259  0.494  0.873-  36 1.94  45 2.05
 160  0.745  0.506  0.375-  41 2.02  48 2.04
 161  0.752  0.504  0.874-  49 2.03  40 2.03
 162  0.253  0.753  0.125-  60 2.02  52 2.04
 163  0.249  0.748  0.625-  61 2.03  53 2.04
 164  0.751  0.259  0.624-  55 1.97  63 1.98
 165  0.752  0.748  0.126-  64 2.02  56 2.04
 166  0.748  0.748  0.624-  57 2.02  65 2.05
 167  0.248  0.246  0.376-  51 2.01  58 2.05
 168  0.247  0.254  0.874-  59 2.01  50 2.04
 169  0.759  0.244  0.373-  55 1.93  62 2.05
 170  0.750  0.245  0.876-  63 1.93  54 2.02
 171  0.126  0.002  0.999-  34 2.01   2 2.03
 172  0.125  0.007  0.493-  35 1.94   3 1.96
 173  0.124  0.505  0.494-  37 2.02   5 2.02
 174  0.625  0.002  0.005-   6 2.03  38 2.04
 175  0.624  0.984  0.498-   7 1.93  39 1.99
 176  0.624  0.496  0.499-  41 2.03   9 2.05
 177  0.127  0.009  0.750-  11 1.96  43 2.04
 178  0.125  0.508  0.248-  12 2.03  44 2.03
 179  0.124  0.495  0.762-  45 1.94  13 2.04
 180  0.624  0.995  0.744-  47 1.94  15 2.02
 181  0.625  0.499  0.249-  16 2.03  48 2.04
 182  0.626  0.493  0.754-  17 1.94  49 2.03
 183  0.125  0.250  0.996-  18 2.01  50 2.04
 184  0.129  0.234  0.515-  51 1.97  19 2.04
 185  0.125  0.746  0.001-  52 1.96  20 1.97
 186  0.124  0.749  0.497-  53 1.97  21 1.97
 187  0.626  0.249  0.995-  22 2.03  54 2.04
 188  0.125  0.237  0.251-  58 1.96  26 1.97
 189  0.123  0.753  0.751-  61 1.93  29 2.02
 190  0.626  0.754  0.750-  33 1.93  65 2.03
 191  0.377  0.004  0.505-   7 1.91  35 1.98
 192  0.373  0.496  0.006-  36 2.02   8 2.03
 193  0.875  0.005  0.512-  39 1.93   3 1.95
 194  0.875  0.498  0.998-   4 2.02  40 2.05
 195  0.377  0.996  0.254-  14 2.00  42 2.05
 196  0.374  0.496  0.742-  45 1.97  17 1.97
 197  0.874  0.999  0.245-  46 2.00  10 2.05
 198  0.874  0.993  0.739-  11 1.97  47 1.97
 199  0.379  0.245  0.496-  51 1.95  23 2.01
 200  0.376  0.757  0.001-  52 1.94  24 2.02
 201  0.377  0.746  0.502-  53 1.95  25 2.01
 202  0.869  0.251  0.504-  55 1.93  19 2.01
 203  0.872  0.755  0.999-  20 1.94  56 2.01
 204  0.872  0.745  0.503-  21 1.94  57 2.02
 205  0.378  0.256  0.250-  58 1.96  30 2.03
 206  0.376  0.251  0.756-  59 2.01  31 2.03
 207  0.377  0.749  0.248-  32 2.00  60 2.06
 208  0.375  0.757  0.749-  33 1.97  61 1.97
 209  0.873  0.255  0.244-  26 1.96  62 2.01
 210  0.875  0.253  0.751-  27 2.02  63 2.02
 211  0.874  0.748  0.249-  64 1.98  28 2.05
 212  0.004  0.126  0.003-  18 2.02   2 2.03
 213  0.002  0.120  0.521-   3 2.00  19 2.02
 214  0.994  0.626  0.995-   4 2.02  20 2.05
 215  0.000  0.627  0.495-   5 1.94  21 2.01
 216  0.504  0.124  0.998-   6 2.01  22 2.07
 217  0.490  0.628  0.000-  24 2.01   8 2.05
 218  0.506  0.627  0.498-  25 1.95   9 1.98
 219  0.992  0.126  0.241-  10 1.93  26 2.03
 220  0.999  0.624  0.254-  28 1.93  12 2.03
 221  0.009  0.624  0.754-  29 1.97  13 1.97
 222  0.501  0.626  0.254-  32 1.94  16 2.00
 223  0.006  0.379  0.496-   5 1.92  19 2.02
 224  0.495  0.372  0.507-  23 1.97   9 1.97
 225  0.489  0.878  0.497-  25 1.95   7 2.02
 226  0.001  0.373  0.755-  13 1.95  27 2.03
 227  0.996  0.876  0.253-  10 1.97  28 1.98
 228  0.002  0.876  0.751-  29 1.95  11 2.01
 229  0.503  0.372  0.241-  16 1.95  30 2.01
 230  0.497  0.373  0.746-  31 2.01  17 2.04
 231  0.496  0.876  0.248-  32 1.93  14 2.04
 232  0.503  0.875  0.755-  15 2.01  33 2.06
 233  0.246  0.125  0.990-  34 1.96  50 1.97
 234  0.254  0.123  0.494-  35 2.01  51 2.06
 235  0.249  0.627  0.503-  53 1.98  37 2.04
 236  0.744  0.126  0.001-  54 1.94  38 1.95
 237  0.761  0.626  0.002-  56 1.94  40 1.95
 238  0.744  0.626  0.501-  57 1.95  41 1.98
 239  0.260  0.126  0.256-  42 1.93  58 2.04
 240  0.254  0.124  0.762-  43 1.98  59 1.98
 241  0.252  0.624  0.244-  60 1.93  44 2.04
 242  0.758  0.126  0.248-  62 1.95  46 1.95
 243  0.746  0.625  0.248-  64 1.93  48 1.96
 244  0.741  0.625  0.748-  65 1.96  49 1.98
 245  0.249  0.376  0.999-  50 1.93  36 2.03
 246  0.245  0.874  0.005-  34 1.93  52 2.04
 247  0.748  0.375  0.988-  54 1.94  40 1.96
 248  0.751  0.373  0.490-  41 1.94  55 2.02
 249  0.745  0.875  0.009-  56 1.95  38 1.95
 250  0.760  0.876  0.504-  57 1.94  39 2.02
 251  0.249  0.375  0.751-  59 1.91  45 2.04
 252  0.254  0.876  0.249-  42 1.96  60 1.97
 253  0.244  0.874  0.741-  43 1.91  61 2.05
 254  0.747  0.374  0.263-  62 1.93  48 1.96
 255  0.754  0.373  0.757-  49 1.94  63 2.03
 256  0.754  0.875  0.242-  46 1.94  64 1.95
 257  0.751  0.875  0.744-  65 1.93  47 2.03
 

IMPORTANT INFORMATION: All symmetrisations will be switched off!
NOSYMM: (Re-)initialisation of all symmetry stuff for point group C_1.

 
 
 KPOINTS: Title                                   

Automatic generation of k-mesh.
Space group operators:
 irot       det(A)        alpha          n_x          n_y          n_z        tau_x        tau_y        tau_z
    1     1.000000     0.000001     1.000000     0.000000     0.000000     0.000000     0.000000     0.000000
 
 Subroutine IBZKPT returns following result:
 ===========================================
 
 Found      4 irreducible k-points:
 
 Following reciprocal coordinates:
            Coordinates               Weight
  0.250000  0.250000  0.250000      2.000000
 -0.250000  0.250000  0.250000      2.000000
  0.250000 -0.250000  0.250000      2.000000
 -0.250000 -0.250000  0.250000      2.000000
 
 Following cartesian coordinates:
            Coordinates               Weight
  0.016206  0.016206  0.016206      2.000000
 -0.016206  0.016206  0.016206      2.000000
  0.016206 -0.016206  0.016206      2.000000
 -0.016206 -0.016206  0.016206      2.000000
 


--------------------------------------------------------------------------------------------------------




 Dimension of arrays:
   k-points           NKPTS =      4   k-points in BZ     NKDIM =      4   number of bands    NBANDS=   1160
   number of dos      NEDOS =   3001   number of ions     NIONS =    257
   non local maximal  LDIM  =      6   non local SUM 2l+1 LMDIM =     18
   total plane-waves  NPLWV = ******
   max r-space proj   IRMAX =   7595   max aug-charges    IRDMAX= 146383
   dimension x,y,z NGX =   120 NGY =  120 NGZ =  120
   dimension x,y,z NGXF=   240 NGYF=  240 NGZF=  240
   support grid    NGXF=   480 NGYF=  480 NGZF=  480
   ions per type =               1  64  64 128
   NGX,Y,Z   is equivalent  to a cutoff of  12.93, 12.93, 12.93 a.u.
   NGXF,Y,Z  is equivalent  to a cutoff of  25.86, 25.86, 25.86 a.u.

 SYSTEM =  LTO                                     
 POSCAR =  config 03                               

 Startparameter for this run:
   NWRITE =      2    write-flag & timer
   PREC   = accura    normal or accurate (medium, high low for compatibility)
   ISTART =      1    job   : 0-new  1-cont  2-samecut
   ICHARG =      0    charge: 1-file 2-atom 10-const
   ISPIN  =      2    spin polarized calculation?
   LNONCOLLINEAR =      F non collinear calculations
   LSORBIT =      F    spin-orbit coupling
   INIWAV =      1    electr: 0-lowe 1-rand  2-diag
   LASPH  =      T    aspherical Exc in radial PAW
   METAGGA=      F    non-selfconsistent MetaGGA calc.

 Electronic Relaxation 1
   ENCUT  =  500.0 eV  36.75 Ry    6.06 a.u.  28.13 28.13 28.13*2*pi/ulx,y,z
   ENINI  =  500.0     initial cutoff
   ENAUG  =  628.9 eV  augmentation charge cutoff
   NELM   =     60;   NELMIN=  2; NELMDL=  0     # of ELM steps 
   EDIFF  = 0.1E-05   stopping-criterion for ELM
   LREAL  =      T    real-space projection
   NLSPLINE    = F    spline interpolate recip. space projectors
   LCOMPAT=      F    compatible to vasp.4.4
   GGA_COMPAT  = T    GGA compatible to vasp.4.4-vasp.4.6
   LMAXPAW     = -100 max onsite density
   LMAXMIX     =    4 max onsite mixed and CHGCAR
   VOSKOWN=      0    Vosko Wilk Nusair interpolation
   ROPT   =   -0.00010  -0.00010  -0.00010  -0.00010
 Ionic relaxation
   EDIFFG = -.5E-01   stopping-criterion for IOM
   NSW    =    100    number of steps for IOM
   NBLOCK =      1;   KBLOCK =    100    inner block; outer block 
   IBRION =      1    ionic relax: 0-MD 1-quasi-New 2-CG
   NFREE  =      0    steps in history (QN), initial steepest desc. (CG)
   ISIF   =      2    stress and relaxation
   IWAVPR =     11    prediction:  0-non 1-charg 2-wave 3-comb
   ISYM   =      0    0-nonsym 1-usesym 2-fastsym
   LCORR  =      T    Harris-Foulkes like correction to forces

   POTIM  = 0.5000    time-step for ionic-motion
   TEIN   =    0.0    initial temperature
   TEBEG  =    0.0;   TEEND  =   0.0 temperature during run
   SMASS  =  -3.00    Nose mass-parameter (am)
   estimated Nose-frequenzy (Omega)   =  0.10E-29 period in steps =****** mass=  -0.544E-26a.u.
   SCALEE = 1.0000    scale energy and forces
   NPACO  =    256;   APACO  = 16.0  distance and # of slots for P.C.
   PSTRESS=    0.0 pullay stress

  Mass of Ions in am
   POMASS =   7.01 47.88 16.00 19.00
  Ionic Valenz
   ZVAL   =   3.00 10.00  6.00  7.00
  Atomic Wigner-Seitz radii
   RWIGS  =  -1.00 -1.00 -1.00 -1.00
  virtual crystal weights 
   VCA    =   1.00  1.00  1.00  1.00
   NELECT =    1923.0000    total number of electrons
   NUPDOWN=       1.0000    fix difference up-down

 DOS related values:
   EMIN   =  10.00;   EMAX   =-10.00  energy-range for DOS
   EFERMI =   0.00
   ISMEAR =     0;   SIGMA  =   0.01  broadening in eV -4-tet -1-fermi 0-gaus

 Electronic relaxation 2 (details)
   IALGO  =     38    algorithm
   LDIAG  =      T    sub-space diagonalisation (order eigenvalues)
   LSUBROT=      F    optimize rotation matrix (better conditioning)
   TURBO    =      0    0=normal 1=particle mesh
   IRESTART =      0    0=no restart 2=restart with 2 vectors
   NREBOOT  =      0    no. of reboots
   NMIN     =      0    reboot dimension
   EREF     =   0.00    reference energy to select bands
   IMIX   =      4    mixing-type and parameters
     AMIX     =   0.40;   BMIX     =  1.00
     AMIX_MAG =   1.60;   BMIX_MAG =  1.00
     AMIN     =   0.10
     WC   =   100.;   INIMIX=   1;  MIXPRE=   1;  MAXMIX= -45

 Intra band minimization:
   WEIMIN = 0.0010     energy-eigenvalue tresh-hold
   EBREAK =  0.22E-09  absolut break condition
   DEPER  =   0.30     relativ break condition  

   TIME   =   0.40     timestep for ELM

  volume/ion in A,a.u.               =      14.28        96.39
  Fermi-wavevector in a.u.,A,eV,Ry     =   1.319690  2.493853 23.695660  1.741582
  Thomas-Fermi vector in A             =   2.449570
 
 Write flags
   LWAVE        =      T    write WAVECAR
   LDOWNSAMPLE  =      F    k-point downsampling of WAVECAR
   LCHARG       =      T    write CHGCAR
   LVTOT        =      F    write LOCPOT, total local potential
   LVHAR        =      F    write LOCPOT, Hartree potential only
   LELF         =      F    write electronic localiz. function (ELF)
   LORBIT       =     11    0 simple, 1 ext, 2 COOP (PROOUT), +10 PAW based schemes


 Dipole corrections
   LMONO  =      F    monopole corrections only (constant potential shift)
   LDIPOL =      F    correct potential (dipole corrections)
   IDIPOL =      0    1-x, 2-y, 3-z, 4-all directions 
   EPSILON=  1.0000000 bulk dielectric constant

 LDA+U is selected, type is set to LDAUTYPE =  2
   angular momentum for each species LDAUL =    -1    2   -1   -1
   U (eV)           for each species LDAUU =   0.0  4.2  0.0  0.0
   J (eV)           for each species LDAUJ =   0.0  0.0  0.0  0.0
 Exchange correlation treatment:
   GGA     =    PS    GGA type
   LEXCH   =    14    internal setting for exchange type
   VOSKOWN=      0    Vosko Wilk Nusair interpolation
   LHFCALC =     F    Hartree Fock is set to
   LHFONE  =     F    Hartree Fock one center treatment
   AEXX    =    0.0000 exact exchange contribution

 Linear response parameters
   LEPSILON=     F    determine dielectric tensor
   LRPA    =     F    only Hartree local field effects (RPA)
   LNABLA  =     F    use nabla operator in PAW spheres
   LVEL    =     F    velocity operator in full k-point grid
   LINTERFAST=   F  fast interpolation
   KINTER  =     0    interpolate to denser k-point grid
   CSHIFT  =0.1000    complex shift for real part using Kramers Kronig
   OMEGAMAX=  -1.0    maximum frequency
   DEG_THRESHOLD= 0.2000000E-02 threshold for treating states as degnerate
   RTIME   =   -0.100 relaxation time in fs
  (WPLASMAI=    0.000 imaginary part of plasma frequency in eV, 0.658/RTIME)
   DFIELD  = 0.0000000 0.0000000 0.0000000 field for delta impulse in time
 
 Orbital magnetization related:
   ORBITALMAG=     F  switch on orbital magnetization
   LCHIMAG   =     F  perturbation theory with respect to B field
   DQ        =  0.001000  dq finite difference perturbation B field
   LLRAUG    =     F  two centre corrections for induced B field



--------------------------------------------------------------------------------------------------------


 quasi-Newton-method for relaxation of ions
 charge density and potential will be updated during run
 spin polarized calculation
 Variant of blocked Davidson
 Davidson routine will perform the subspace rotation
 perform sub-space diagonalisation
    after iterative eigenvector-optimisation
 modified Broyden-mixing scheme, WC =      100.0
 initial mixing is a Kerker type mixing with AMIX =  0.4000 and BMIX =      1.0000
 Hartree-type preconditioning will be used
 using additional bands          198
 real space projection scheme for non local part
 use partial core corrections
 calculate Harris-corrections to forces 
   (improved forces if not selfconsistent)
 use gradient corrections 
 use of overlap-Matrix (Vanderbilt PP)
 Gauss-broadening in eV      SIGMA  =   0.01


--------------------------------------------------------------------------------------------------------


  energy-cutoff  :      500.00
  volume of cell :     3671.03
      direct lattice vectors                 reciprocal lattice vectors
    15.426331000  0.000000000  0.000000000     0.064824228  0.000000000  0.000000000
     0.000000000 15.426331000  0.000000000     0.000000000  0.064824228  0.000000000
     0.000000000  0.000000000 15.426331000     0.000000000  0.000000000  0.064824228

  length of vectors
    15.426331000 15.426331000 15.426331000     0.064824228  0.064824228  0.064824228


 
 old parameters found on file WAVECAR:
  energy-cutoff  :      500.00
  volume of cell :     3671.03
      direct lattice vectors                 reciprocal lattice vectors
    15.426331000  0.000000000  0.000000000     0.064824228  0.000000000  0.000000000
     0.000000000 15.426331000  0.000000000     0.000000000  0.064824228  0.000000000
     0.000000000  0.000000000 15.426331000     0.000000000  0.000000000  0.064824228

  length of vectors

 
 k-points in units of 2pi/SCALE and weight: Title                                   
   0.01620606  0.01620606  0.01620606       0.250
  -0.01620606  0.01620606  0.01620606       0.250
   0.01620606 -0.01620606  0.01620606       0.250
  -0.01620606 -0.01620606  0.01620606       0.250
 
 k-points in reciprocal lattice and weights: Title                                   
   0.25000000  0.25000000  0.25000000       0.250
  -0.25000000  0.25000000  0.25000000       0.250
   0.25000000 -0.25000000  0.25000000       0.250
  -0.25000000 -0.25000000  0.25000000       0.250
 
 position of ions in fractional coordinates (direct lattice) 
   0.12865179  0.13495102  0.64073253
   0.99472614  0.99543495  0.99504813
   0.99908559  0.99305628  0.49259884
   0.00555821  0.49532274  0.99735507
   0.99413573  0.50232167  0.50655050
   0.49376738  0.99440923  0.99959102
   0.50127029  0.00790779  0.49998411
   0.50424496  0.49568030  0.99594804
   0.49190313  0.49917657  0.49514279
   0.00631318  0.00318984  0.25598632
   0.99965673  0.00638798  0.75694262
   0.99425896  0.49258221  0.25115059
   0.99303267  0.49849016  0.74172831
   0.50596354  0.00837145  0.25044607
   0.49329292  0.00508067  0.75068882
   0.49327978  0.49706561  0.25723302
   0.50088387  0.50449278  0.75823806
   0.99557388  0.25709812  0.00228774
   0.99901357  0.24802205  0.49362279
   0.99799681  0.75804394  0.00574979
   0.99767763  0.75731680  0.50557706
   0.49480278  0.25804264  0.00057682
   0.50910435  0.24574482  0.49940150
   0.50715949  0.75648417  0.99910094
   0.50693314  0.75300034  0.50904812
   0.99943147  0.25710633  0.25746760
   0.00575383  0.24177932  0.74786234
   0.00669668  0.74852230  0.24294888
   0.99293049  0.75034772  0.74313552
   0.50814826  0.24226899  0.25129607
   0.50742289  0.24313210  0.74986807
   0.50677965  0.75163714  0.25198255
   0.50155146  0.74236929  0.74349340
   0.25591203  0.99897223  0.00640800
   0.24976603  0.99339953  0.50666953
   0.24348403  0.50775233  0.99744703
   0.25388276  0.49472382  0.50708994
   0.75697475  0.00033786  0.99437486
   0.75063861  0.00659884  0.49433544
   0.74188997  0.50056728  0.00513555
   0.75560318  0.49784024  0.50512807
   0.24450641  0.00270790  0.24405782
   0.25793618  0.99737818  0.74428715
   0.25543342  0.49234015  0.25170779
   0.24720037  0.50721720  0.74177610
   0.74471054  0.00017263  0.25588292
   0.74820590  0.00594867  0.75598643
   0.75651578  0.49916983  0.24285724
   0.75732614  0.49761257  0.74250951
   0.25719807  0.25123580  0.00583351
   0.25365767  0.25628059  0.50527165
   0.25186237  0.74290877  0.99338723
   0.25164930  0.75511791  0.49328309
   0.75729285  0.25081344  0.00648086
   0.74422513  0.24233623  0.49752416
   0.74177687  0.74957165  0.99394839
   0.74184279  0.75215029  0.49396236
   0.25083231  0.25747406  0.24329889
   0.24683227  0.25133033  0.74396416
   0.24377808  0.74865902  0.25576421
   0.24809215  0.74233145  0.75696739
   0.74272421  0.25091412  0.24158941
   0.74429795  0.24165715  0.75048931
   0.74561119  0.75023980  0.25656584
   0.75738469  0.75056770  0.75664246
   0.00709741  0.50095935  0.62505615
   0.99278678  0.00873464  0.37573183
   0.99644416  0.00644793  0.87212163
   0.50000253  0.49455173  0.37535617
   0.49468888  0.49814298  0.87445393
   0.99870270  0.74888700  0.12523992
   0.00091935  0.74874385  0.62447661
   0.50087133  0.75501014  0.62493297
   0.99819832  0.24344892  0.37218386
   0.25280320  0.00552983  0.12537040
   0.24150187  0.01383467  0.62587964
   0.24021729  0.49902974  0.62623155
   0.75082297  0.49288847  0.12510265
   0.74649685  0.49447626  0.62434989
   0.75311947  0.99845796  0.37578236
   0.74850664  0.99778011  0.87335982
   0.24896512  0.24792286  0.12524662
   0.25767537  0.24018937  0.62657054
   0.74345980  0.25729534  0.12527547
   0.25382809  0.75024184  0.37528938
   0.25100135  0.75609303  0.87494145
   0.75167392  0.75282727  0.37401160
   0.74778006  0.75309984  0.87531109
   0.12455791  0.50361104  0.99517557
   0.62544434  0.50740534  0.99856483
   0.12543720  0.00325794  0.25411242
   0.62477115  0.00038837  0.25182057
   0.62419973  0.25497109  0.49665894
   0.62444884  0.74238136  0.00347264
   0.62447414  0.76053511  0.49671806
   0.12575640  0.23929936  0.73782321
   0.12566412  0.75184791  0.25127088
   0.62530768  0.24563818  0.25921144
   0.62542899  0.25109826  0.74667385
   0.62278199  0.75433826  0.25049574
   0.37541023  0.00011785  0.99377041
   0.37479470  0.50259302  0.50337491
   0.87285412  0.00190467  0.00192482
   0.87474238  0.50108464  0.49896973
   0.37575649  0.99451276  0.74880762
   0.37409568  0.49666311  0.24952979
   0.87506589  0.49850381  0.25271317
   0.87542721  0.50451264  0.74736041
   0.37553327  0.24796971  0.00014746
   0.87437057  0.24805113  0.00234456
   0.87487382  0.74533778  0.74976939
   0.50791579  0.12215905  0.49715665
   0.99806186  0.12512469  0.73375205
   0.49544463  0.12493602  0.26082179
   0.49984613  0.12329194  0.74585366
   0.50034345  0.62549575  0.74881942
   0.00019902  0.37504454  0.00091841
   0.00165265  0.87541231  0.99785330
   0.99804362  0.87517123  0.49606251
   0.50236664  0.37408041  0.00586842
   0.50396587  0.87552410  0.00225324
   0.00627972  0.37519712  0.24749290
   0.25508061  0.62554514  0.99878147
   0.74214013  0.12417776  0.50326971
   0.24946764  0.62508076  0.75335904
   0.75206532  0.12426023  0.74483011
   0.24821722  0.37230692  0.49883510
   0.25140426  0.87611339  0.50548991
   0.24266752  0.37442682  0.25451547
   0.00208942  0.99898409  0.12621855
   0.01282865  0.99205880  0.62450844
   0.99953030  0.50799556  0.12426900
   0.49570863  0.00539310  0.12625119
   0.50356486  0.99226601  0.62310660
   0.50128890  0.50659479  0.12719064
   0.50573477  0.49946919  0.62492087
   0.00425473  0.50081808  0.37561779
   0.99609344  0.50001729  0.87279199
   0.49860644  0.99140545  0.37698003
   0.51059718  0.00194005  0.87432206
   0.00588334  0.24752955  0.12596900
   0.99450928  0.26251861  0.62416620
   0.50560025  0.24022651  0.12648291
   0.49348301  0.24884012  0.62335926
   0.49542312  0.74746560  0.12690792
   0.00134951  0.24491084  0.87369468
   0.99493463  0.74925832  0.37477589
   0.00185872  0.74947080  0.87381876
   0.49334032  0.26124916  0.37588412
   0.50221390  0.24970937  0.87427049
   0.49351069  0.75287153  0.37577969
   0.49866469  0.75100105  0.87402839
   0.24592824  0.49679451  0.12461092
   0.74744843  0.00415569  0.12621428
   0.74349422  0.99585856  0.62320996
   0.25566638  0.99774120  0.37640776
   0.24580606  0.99158826  0.87314610
   0.24690385  0.50815214  0.37564226
   0.25858868  0.49440144  0.87339994
   0.74526019  0.50571782  0.37471427
   0.75152073  0.50442187  0.87381128
   0.25261887  0.75261371  0.12496538
   0.24932441  0.74796926  0.62535929
   0.75129190  0.25941327  0.62372864
   0.75242957  0.74769526  0.12569669
   0.74770802  0.74816676  0.62442993
   0.24828540  0.24596065  0.37573304
   0.24740544  0.25408301  0.87416787
   0.75887802  0.24387427  0.37334804
   0.75037817  0.24532724  0.87551265
   0.12597098  0.00201625  0.99898819
   0.12538074  0.00666076  0.49271263
   0.12439512  0.50547274  0.49361945
   0.62486762  0.00172546  0.00502448
   0.62397499  0.98409457  0.49849269
   0.62445658  0.49616770  0.49894045
   0.12656486  0.00916572  0.75047432
   0.12473486  0.50784746  0.24829201
   0.12356682  0.49526629  0.76229342
   0.62351999  0.99510771  0.74436176
   0.62474241  0.49918252  0.24931456
   0.62627404  0.49334308  0.75443010
   0.12542031  0.24975080  0.99641512
   0.12867373  0.23352626  0.51543554
   0.12513571  0.74578324  0.00097213
   0.12448059  0.74867999  0.49687846
   0.62582512  0.24882593  0.99515474
   0.12548685  0.23687764  0.25134716
   0.12344602  0.75280939  0.75056582
   0.62620957  0.75363515  0.74983168
   0.37736771  0.00408129  0.50467557
   0.37330048  0.49613953  0.00648897
   0.87459587  0.00475181  0.51248171
   0.87461134  0.49810459  0.99812443
   0.37682260  0.99640806  0.25413287
   0.37427563  0.49589803  0.74216307
   0.87379577  0.99877226  0.24487869
   0.87420231  0.99328251  0.73860438
   0.37908610  0.24500160  0.49562130
   0.37645542  0.75685891  0.00122576
   0.37705989  0.74554142  0.50209627
   0.86906972  0.25072744  0.50379590
   0.87215558  0.75471621  0.99870556
   0.87231579  0.74471631  0.50278448
   0.37764790  0.25635807  0.24961275
   0.37643839  0.25138917  0.75598421
   0.37690460  0.74887400  0.24827814
   0.37483418  0.75666194  0.74911462
   0.87306606  0.25472675  0.24397229
   0.87506830  0.25299849  0.75098859
   0.87364932  0.74778959  0.24909978
   0.00368183  0.12632782  0.00296259
   0.00156786  0.11973237  0.52077292
   0.99392213  0.62595267  0.99523133
   0.00027905  0.62742149  0.49463231
   0.50411311  0.12437036  0.99826128
   0.48981724  0.62755144  0.00015249
   0.50573019  0.62678205  0.49835198
   0.99184310  0.12646926  0.24085110
   0.99902598  0.62412678  0.25422016
   0.00914507  0.62442497  0.75406231
   0.50118968  0.62623640  0.25433855
   0.00646052  0.37882187  0.49572845
   0.49514707  0.37224874  0.50662054
   0.48926522  0.87779913  0.49676342
   0.00092739  0.37306079  0.75474412
   0.99570421  0.87612071  0.25326560
   0.00221503  0.87603059  0.75115247
   0.50329953  0.37181899  0.24126693
   0.49746951  0.37278180  0.74577719
   0.49590520  0.87623008  0.24751837
   0.50295200  0.87532213  0.75506950
   0.24607436  0.12479230  0.99021483
   0.25425058  0.12322032  0.49357427
   0.24862543  0.62690473  0.50274823
   0.74362049  0.12585295  0.00136962
   0.76090578  0.62564506  0.00198121
   0.74399391  0.62576869  0.50091019
   0.26005247  0.12640432  0.25637333
   0.25446239  0.12415072  0.76191062
   0.25186891  0.62419277  0.24418812
   0.75770228  0.12570185  0.24839891
   0.74608335  0.62538806  0.24772866
   0.74072285  0.62462119  0.74805489
   0.24882097  0.37605843  0.99928426
   0.24521235  0.87430539  0.00515890
   0.74776698  0.37488562  0.98829972
   0.75057205  0.37284171  0.48996767
   0.74519942  0.87498641  0.00861653
   0.76040926  0.87617834  0.50403750
   0.24893814  0.37511448  0.75126266
   0.25435659  0.87594291  0.24869264
   0.24350412  0.87421827  0.74069219
   0.74738075  0.37420376  0.26293020
   0.75407110  0.37280693  0.75683838
   0.75429018  0.87525085  0.24225525
   0.75062849  0.87513056  0.74366339
 
 position of ions in cartesian coordinates  (Angst):
   1.98462506  2.08179918  9.88415206
  15.34497469 15.35590900 15.34994178
  15.41222505 15.31921495  7.59899269
   0.08574277  7.64101260 15.38552946
  15.33586686  7.74898039  7.81421570
   7.61701908 15.34008597 15.42002201
   7.73276149  0.12198819  7.71292030
   7.77864961  7.64652838 15.36382408
   7.58826056  7.70046302  7.63823653
   0.09738918  0.04920746  3.94892973
  15.42103557  0.09854302 11.67684742
  15.33776778  7.59873624  3.87433206
  15.31885064  7.68987414 11.44214644
   7.80516098  0.12914080  3.86346397
   7.60969984  0.07837611 11.58037417
   7.60949712  7.66789869  3.96816176
   7.72680033  7.78247261 11.69683126
  15.35805217  3.96608069  0.03529137
  15.41111400  3.82607017  7.61478848
  15.39542916 11.69383669  0.08869815
  15.39050532 11.68261955  7.79919909
   7.63299149  3.98065116  0.00889814
   7.85361222  3.79094093  7.70393282
   7.82361018 11.66977525 15.41246181
   7.82011844 11.61603251  7.85274480
  15.41756061  3.96620732  3.97178034
   0.08876044  3.72976776 11.53677203
   0.10330522 11.54695274  3.74780982
  15.31727439 11.57511232 11.46385452
   7.83886331  3.73732168  3.87657635
   7.82767353  3.75063626 11.56771305
   7.81775061 11.59500338  3.88716625
   7.73709877 11.45203443 11.46937524
   3.94778373 15.41047631  0.09885195
   3.85297347 15.32450992  7.81605182
   3.75606526  7.83275554 15.38694801
   3.91647951  7.63177344  7.82253725
  11.67734305  0.00521195 15.33955577
  11.57959970  0.10179581  7.62578206
  11.44464029  7.72191648  0.07922269
  11.65618480  7.67984830  7.79227284
   3.77183679  0.04177294  3.76491666
   3.97900897 15.38588595 11.48161992
   3.94040056  7.59500219  3.88292769
   3.81339479  7.82450043 11.44288370
  11.48815127  0.00266297  3.94733466
  11.54207180  0.09176621 11.66209698
  11.67026286  7.70035897  3.74639618
  11.68276363  7.67633627 11.45419755
   3.96762250  3.87564663  0.08998968
   3.91300722  3.95346924  7.79448773
   3.88531226 11.46035656 15.32432024
   3.88202536 11.64869886  7.60954827
  11.68225024  3.86913114  0.09997585
  11.48066323  3.73835894  7.67497239
  11.44289555 11.56314036 15.33297686
  11.44391245 11.60291935  7.62002682
   3.86942224  3.97188010  3.75320929
   3.80771630  3.87710480 11.47663741
   3.76060139 11.54906179  3.94550333
   3.82715162 11.45145074 11.67722948
  11.45750947  3.87068423  3.72683818
  11.48178652  3.72788326 11.57729644
  11.50204507 11.57344754  3.95786951
  11.68366691 11.57850583 11.67221703
   0.10948695  7.72796476  9.64232312
  15.31505743  0.13474342  5.79616352
  15.37147751  0.09946786 13.45363700
   7.71320459  7.62911871  5.79036857
   7.63123447  7.68451845 13.48961573
  15.40631842 11.55257878  1.93199241
   0.01418224 11.55037042  9.63338285
   7.72660688 11.64703625  9.64042277
  15.39853776  3.75552357  5.74143142
   3.89982578  0.08530496  1.93400536
   3.72548771  0.21341817  9.65502646
   3.70567140  7.69819793  9.66045524
  11.58244359  7.60346065  1.92987483
  11.51570754  7.62795448  9.63142812
  11.61787022 15.40254302  5.79694314
  11.54671124 15.39208629 13.47273769
   3.84061833  3.82454016  1.93209584
   3.97498552  3.70524075  9.66568452
  11.46885693  3.96912307  1.93254079
   3.91563608 11.57347899  5.78933821
   3.87202998 11.66374131 13.49713636
  11.59557072 11.61336259  5.76962673
  11.53550267 11.61756738 13.50283865
   1.92147148  7.76887065 15.35190775
   9.64831135  7.82740278 15.40419159
   1.93503579  0.05025798  3.92002225
   9.63792654  0.00599110  3.88466750
   9.62911167  3.93326838  7.66162518
   9.63295444 11.45222063  0.05357006
   9.63334473 11.73226638  7.66253718
   1.93995979  3.69151109 11.38190512
   1.93853627 11.59825474  3.87618775
   9.64620330  3.78929580  3.99868140
   9.64807467  3.87352482 11.51843792
   9.60724111 11.63667165  3.86423023
   5.79120251  0.00181793 15.33023125
   5.78170703  7.75316629  7.76522803
  13.46493650  0.02938206  0.02969284
  13.49406543  7.72989749  7.69727227
   5.79654396 15.34168297 11.55135416
   5.77092380  7.66168948  3.84932920
  13.49905611  7.69008473  3.89843707
  13.50462994  7.78277900 11.52902907
   5.79310057  3.82526281  0.00227477
  13.48832987  3.82651884  0.03616793
  13.49609314 11.49782733 11.56619079
   7.83527705  1.88446601  7.66930303
  15.39643267  1.93021486 11.31910206
   7.64289289  1.92730437  4.02352326
   7.71079180  1.90194222 11.50578541
   7.71846364  9.64910442 11.55153630
   0.00307011  5.78556128  0.01416768
   0.02549429 13.50440005 15.39321535
  15.39615128 13.50068110  7.65242449
   7.74967409  5.77068822  0.09052822
   7.77434429 13.50612449  0.03475918
   0.09687304  5.78791503  3.81790743
   3.93495799  9.64986643 15.40753357
  11.44849928  1.91560726  7.76360508
   3.84837035  9.64270264 11.62156598
  11.60160851  1.91687942 11.48999574
   3.82908107  5.74332979  7.69519535
   3.87824532 13.51521516  7.79785464
   3.74346944  5.77603199  3.92623982
   0.03223205 15.41065919  1.94708911
   0.19789905 15.30382739  9.63387384
  15.41908531  7.83650766  1.91701474
   7.64696538  0.08319569  1.94759264
   7.76815824 15.30702398  9.61224863
   7.73304857  7.81489889  1.96208492
   7.80163191  7.70497705  9.64023623
   0.06563492  7.72578543  5.79440439
  15.36606705  7.71343225 13.46397812
   7.69166803 15.29374864  5.81541877
   7.87664104  0.02992793 13.48758155
   0.09075839  3.81847272  1.94323945
  15.34162939  4.04969901  9.62859438
   7.79955676  3.70581372  1.95116729
   7.61263231  3.83868999  9.61614621
   7.64256109 11.53065177  1.95772363
   0.02081791  3.77807567 13.47790334
  15.34819096 11.55830692  5.78141698
   0.02867316 11.56158470 13.47981746
   7.61043104  4.03011608  5.79851280
   7.74731786  3.85209944 13.48678604
   7.61305929 11.61404550  5.79690185
   7.69256663 11.58519076 13.48305120
   3.79377050  7.66371657  1.92228935
  11.53038687  0.06410703  1.94702321
  11.46938788 15.36244373  9.61384308
   3.94399423 15.39148608  5.80659067
   3.79188562 15.29656868 13.46944070
   3.80882059  7.83892311  5.79478186
   3.98907460  7.62680024 13.47335653
  11.49663045  7.80137052  5.78046643
  11.59320750  7.78137871 13.47970197
   3.89698227 11.61006814  1.92775731
   3.84616092 11.53842142  9.64699934
  11.58967756  4.00179494  9.62184443
  11.60722754 11.53419455  1.93903875
  11.53439134 11.54146802  9.63266277
   3.83013279  3.79427046  5.79618221
   3.81655828  3.91956857 13.48520292
  11.70670348  3.76208515  5.75939044
  11.57558196  3.78449917 13.50594796
   1.94326997  0.03110333 15.41072246
   1.93416479  0.10275109  7.60074811
   1.91896026  7.79758984  7.61473708
   9.63941477  0.02661753  0.07750937
   9.62564473 15.18096854  7.68991326
   9.63307391  7.65404723  7.69682055
   1.95243140  0.14139339 11.57706530
   1.92420121  7.83422302  3.83023470
   1.90618260  7.64014172 11.75939068
   9.61862580 15.35086094 11.48277085
   9.63748325  7.70055475  3.84600887
   9.66111063  7.61047367 11.63808838
   1.93477525  3.85273847 15.37102940
   1.98496355  3.60245339  7.95127924
   1.93038486 11.50469909  0.01499645
   1.92027874 11.54938533  7.66501165
   9.65418542  3.83847113 15.35158639
   1.93580169  3.65415291  3.87736449
   1.90431919 11.61308677 11.57847671
   9.66011613 11.62582523 11.56715167
   5.82139922  0.06295928  7.78529238
   5.75865674  7.65361258  0.10010103
  13.49180540  0.07330292  7.90571250
  13.49204405  7.68392627 15.39739779
   5.81299013 15.37092056  3.92033776
   5.77369968  7.64988718 11.44885321
  13.47946283 15.40739147  3.77757970
  13.48573419 15.32270478 11.39395563
   5.84790762  3.77947575  7.64561816
   5.80732597 11.67555611  0.01890894
   5.81665065 11.50096876  7.74550327
  13.40655714  3.86780446  7.77172228
  13.45416064 11.64250201 15.40636257
  13.45663211 11.48824028  7.75611984
   5.82572158  3.95466442  3.85060896
   5.80706318  3.87801253 11.66206259
   5.81425515 11.55237819  3.83002084
   5.78231617 11.67251759 11.55609013
  13.46820608  3.92949909  3.76359730
  13.49909320  3.90283841 11.58499862
  13.47720355 11.53564975  3.84269561
   0.05679707  1.94877476  0.04570184
   0.02418627  1.84703112  8.03361551
  15.33257181  9.65615315 15.35276793
   0.00430477  9.67881156  7.63036171
   7.77661575  1.91857834 15.39950900
   7.55608280  9.68081624  0.00235239
   7.80156128  9.66894733  7.68774261
  15.30050003  1.95095666  3.71544874
  15.41130540  9.62798636  3.92168437
   0.14107485  9.63258626 11.63241476
   7.73151784  9.66053005  3.92351069
   0.09966215  5.84383156  7.64727113
   7.63830267  5.74243227  7.81529611
   7.54756726 13.54121990  7.66323695
   0.01430616  5.75495922 11.64293262
  15.36006277 13.51532809  3.90695900
   0.03416984 13.51393787 11.58752656
   7.76406507  5.73580278  3.72186352
   7.67412938  5.75065551 11.50460578
   7.64999775 13.51701527  3.81830038
   7.75870400 13.50300898 11.64795210
   3.79602449  1.92508728 15.27538168
   3.92215363  1.90083740  7.61404003
   3.83537821  9.67083988  7.75556068
  11.47133582  1.94144931  0.02112826
  11.73798437  9.65140774  0.03056276
  11.47709631  9.65331491  7.72720638
   4.01165548  1.94995486  3.95489986
   3.92542103  1.91519013 11.75348543
   3.88541319  9.62900425  3.76692680
  11.68856625  1.93911831  3.83188376
  11.50932866  9.64744329  3.82154434
  11.42663584  9.63561322 11.53974229
   3.83839462  5.80120176 15.41528982
   3.78272691 13.48732442  0.07958284
  11.53530098  5.78310972 15.24583860
  11.57857291  5.75157961  7.55840339
  11.49569296 13.49782999  0.13292145
  11.73032495 13.51621715  7.77544937
   3.84020213  5.78664008 11.58922643
   3.92378898 13.51258531  3.83641498
   3.75637522 13.48598035 11.42616289
  11.52934279  5.77259107  4.05604824
  11.63255038  5.75104315 11.67523938
  11.63592997 13.50190928  3.73710968
  11.57944359 13.50005368 11.47199759
 


--------------------------------------------------------------------------------------------------------


 k-point  1 :   0.2500 0.2500 0.2500  plane waves:   93161
 k-point  2 :  -0.2500 0.2500 0.2500  plane waves:   93161
 k-point  3 :   0.2500-0.2500 0.2500  plane waves:   93161
 k-point  4 :  -0.2500-0.2500 0.2500  plane waves:   93161

 maximum and minimum number of plane-waves per node :      7806     7735

 maximum number of plane-waves:     93161
 maximum index in each direction: 
   IXMAX=   28   IYMAX=   28   IZMAX=   27
   IXMIN=  -28   IYMIN=  -28   IZMIN=  -28


 real space projection operators:
  total allocation   :     105582.51 KBytes
  max/ min on nodes  :       8886.23       8651.83


 parallel 3D FFT for wavefunctions:
    minimum data exchange during FFTs selected (reduces bandwidth)
 parallel 3D FFT for charge:
    minimum data exchange during FFTs selected (reduces bandwidth)


 total amount of memory used by VASP MPI-rank0   277500. kBytes
=======================================================================

   base      :      30000. kBytes
   nonlr-proj:      43925. kBytes
   fftplans  :      25853. kBytes
   grid      :      28262. kBytes
   one-center:        684. kBytes
   wavefun   :     148776. kBytes
 
     INWAV:  cpu time   59.2252: real time   59.9072
 Broyden mixing: mesh for mixing (old mesh)
   NGX = 57   NGY = 57   NGZ = 57
  (NGX  =240   NGY  =240   NGZ  =240)
  gives a total of 185193 points

 charge density for first step will be calculated from the start-wavefunctions


--------------------------------------------------------------------------------------------------------


 Maximum index for non-local projection operator          690
 Maximum index for augmentation-charges         3297 (set IRDMAX)


--------------------------------------------------------------------------------------------------------


 initial charge from wavefunction
 First call to EWALD:  gamma=   0.115
 Maximum number of real-space cells 3x 3x 3
 Maximum number of reciprocal cells 3x 3x 3

    FEWALD:  cpu time    0.0275: real time    0.0285


--------------------------------------- Iteration      1(   1)  ---------------------------------------


    POTLOK:  cpu time    0.2719: real time    0.2813
    SETDIJ:  cpu time    1.2499: real time    1.4088
     EDDAV:  cpu time  169.8938: real time  171.2439
       DOS:  cpu time    0.0041: real time    0.0107
    CHARGE:  cpu time    4.2538: real time    4.2705
    MIXING:  cpu time    0.0077: real time    0.0105
    --------------------------------------------
      LOOP:  cpu time  175.6813: real time  177.2257

 eigenvalue-minimisations  : 29680
 total energy-change (2. order) :-0.1891085E+04  (-0.1994486E+03)
 number of electron    1923.0000029 magnetization       1.0000000
 augmentation part      502.4386686 magnetization       0.2372132

 Broyden mixing:
  rms(total) = 0.76647E+01    rms(broyden)= 0.76613E+01
  rms(prec ) = 0.11970E+02
  weight for this iteration     100.00

 Free energy of the ion-electron system (eV)
  ---------------------------------------------------
  alpha Z        PSCENC =      6118.73324990
  Ewald energy   TEWEN  =   -103129.52305445
  -Hartree energ DENC   =    -65507.97977605
  -exchange      EXHF   =         0.00000000
  -V(xc)+E(xc)   XCENC  =      8961.32463967
  PAW double counting   =    198384.00614011  -199375.57731091
  entropy T*S    EENTRO =        -0.00646239
  eigenvalues    EBANDS =    -25919.31495502
  atomic energy  EATOM  =    178577.25249613
  Solvation  Ediel_sol  =         0.00000000
  ---------------------------------------------------
  free energy    TOTEN  =     -1891.08503301 eV

  energy without entropy =    -1891.07857062  energy(sigma->0) =    -1891.08180181


--------------------------------------------------------------------------------------------------------




--------------------------------------- Iteration      1(   2)  ---------------------------------------


    POTLOK:  cpu time    0.2568: real time    0.2600
    SETDIJ:  cpu time    1.3817: real time    1.3824
     EDDAV:  cpu time  159.9213: real time  160.9357
       DOS:  cpu time    0.0037: real time    0.0037
    CHARGE:  cpu time    4.3028: real time    4.3062
    MIXING:  cpu time    0.0080: real time    0.0120
    --------------------------------------------
      LOOP:  cpu time  165.8745: real time  166.9001

 eigenvalue-minimisations  : 27856
 total energy-change (2. order) : 0.5181476E+02  (-0.2591041E+03)
 number of electron    1923.0000029 magnetization       1.0000000
 augmentation part      502.4629872 magnetization      -0.5248810

 Broyden mixing:
  rms(total) = 0.81296E+01    rms(broyden)= 0.81232E+01
  rms(prec ) = 0.11638E+02
  weight for this iteration     100.00

 eigenvalues of (default mixing * dielectric matrix)
  average eigenvalue GAMMA=   0.4671
  0.4671

 Free energy of the ion-electron system (eV)
  ---------------------------------------------------
  alpha Z        PSCENC =      6118.73324990
  Ewald energy   TEWEN  =   -103129.52305445
  -Hartree energ DENC   =    -65509.21275693
  -exchange      EXHF   =         0.00000000
  -V(xc)+E(xc)   XCENC  =      8956.51499393
  PAW double counting   =    200061.44601601  -201026.28982834
  entropy T*S    EENTRO =        -0.00296727
  eigenvalues    EBANDS =    -25888.18841918
  atomic energy  EATOM  =    178577.25249613
  Solvation  Ediel_sol  =         0.00000000
  ---------------------------------------------------
  free energy    TOTEN  =     -1839.27027019 eV

  energy without entropy =    -1839.26730292  energy(sigma->0) =    -1839.26878656


--------------------------------------------------------------------------------------------------------




--------------------------------------- Iteration      1(   3)  ---------------------------------------


    POTLOK:  cpu time    0.2586: real time    0.2590
    SETDIJ:  cpu time    1.3895: real time    1.3902
     EDDAV:  cpu time  153.7396: real time  154.9136
       DOS:  cpu time    0.0020: real time    0.0020
    CHARGE:  cpu time    4.3223: real time    4.3256
    MIXING:  cpu time    0.0089: real time    0.0101
    --------------------------------------------
      LOOP:  cpu time  159.7210: real time  160.9006

 eigenvalue-minimisations  : 26448
 total energy-change (2. order) : 0.2583857E+01  (-0.8485190E+02)
 number of electron    1923.0000029 magnetization       1.0000000
 augmentation part      492.5644568 magnetization       0.1778343

 Broyden mixing:
  rms(total) = 0.52732E+01    rms(broyden)= 0.52713E+01
  rms(prec ) = 0.60470E+01
  weight for this iteration     100.00

 eigenvalues of (default mixing * dielectric matrix)
  average eigenvalue GAMMA=   0.4791
  0.4791  0.4791

 Free energy of the ion-electron system (eV)
  ---------------------------------------------------
  alpha Z        PSCENC =      6118.73324990
  Ewald energy   TEWEN  =   -103129.52305445
  -Hartree energ DENC   =    -65577.79839851
  -exchange      EXHF   =         0.00000000
  -V(xc)+E(xc)   XCENC  =      8960.46126108
  PAW double counting   =    200307.62237689  -201270.42236805
  entropy T*S    EENTRO =        -0.00000000
  eigenvalues    EBANDS =    -25823.01197664
  atomic energy  EATOM  =    178577.25249613
  Solvation  Ediel_sol  =         0.00000000
  ---------------------------------------------------
  free energy    TOTEN  =     -1836.68641364 eV

  energy without entropy =    -1836.68641364  energy(sigma->0) =    -1836.68641364


--------------------------------------------------------------------------------------------------------




--------------------------------------- Iteration      1(   4)  ---------------------------------------


    POTLOK:  cpu time    0.2562: real time    0.2586
    SETDIJ:  cpu time    1.3725: real time    1.3738
     EDDAV:  cpu time  150.5056: real time  151.8921
       DOS:  cpu time    0.0021: real time    0.0021
    CHARGE:  cpu time    4.2403: real time    4.2585
    MIXING:  cpu time    0.0078: real time    0.0085
    --------------------------------------------
      LOOP:  cpu time  156.3845: real time  157.7935

 eigenvalue-minimisations  : 25608
 total energy-change (2. order) : 0.4230663E+02  (-0.1955578E+02)
 number of electron    1923.0000029 magnetization       1.0000000
 augmentation part      494.1861171 magnetization       0.5014627

 Broyden mixing:
  rms(total) = 0.35618E+01    rms(broyden)= 0.35600E+01
  rms(prec ) = 0.41443E+01
  weight for this iteration     100.00

 eigenvalues of (default mixing * dielectric matrix)
  average eigenvalue GAMMA=   0.6474
  0.5338  0.7043  0.7043

 Free energy of the ion-electron system (eV)
  ---------------------------------------------------
  alpha Z        PSCENC =      6118.73324990
  Ewald energy   TEWEN  =   -103129.52305445
  -Hartree energ DENC   =    -65563.68254871
  -exchange      EXHF   =         0.00000000
  -V(xc)+E(xc)   XCENC  =      8967.24308366
  PAW double counting   =    200427.57224163  -201407.27410525
  entropy T*S    EENTRO =        -0.00000000
  eigenvalues    EBANDS =    -25784.70115044
  atomic energy  EATOM  =    178577.25249613
  Solvation  Ediel_sol  =         0.00000000
  ---------------------------------------------------
  free energy    TOTEN  =     -1794.37978752 eV

  energy without entropy =    -1794.37978752  energy(sigma->0) =    -1794.37978752


--------------------------------------------------------------------------------------------------------




--------------------------------------- Iteration      1(   5)  ---------------------------------------


    POTLOK:  cpu time    0.2586: real time    0.2589
    SETDIJ:  cpu time    1.3754: real time    1.3768
     EDDAV:  cpu time  154.0128: real time  154.8525
       DOS:  cpu time    0.0022: real time    0.0022
    CHARGE:  cpu time    4.3063: real time    4.3088
    MIXING:  cpu time    0.0085: real time    0.0085
    --------------------------------------------
      LOOP:  cpu time  159.9638: real time  160.8076

 eigenvalue-minimisations  : 26720
 total energy-change (2. order) : 0.2896004E+02  (-0.9426769E+01)
 number of electron    1923.0000029 magnetization       1.0000000
 augmentation part      494.9365009 magnetization       0.5778129

 Broyden mixing:
  rms(total) = 0.16978E+01    rms(broyden)= 0.16968E+01
  rms(prec ) = 0.19869E+01
  weight for this iteration     100.00

 eigenvalues of (default mixing * dielectric matrix)
  average eigenvalue GAMMA=   0.7286
  0.9080  0.9080  0.5492  0.5492

 Free energy of the ion-electron system (eV)
  ---------------------------------------------------
  alpha Z        PSCENC =      6118.73324990
  Ewald energy   TEWEN  =   -103129.52305445
  -Hartree energ DENC   =    -65566.74539001
  -exchange      EXHF   =         0.00000000
  -V(xc)+E(xc)   XCENC  =      8971.85995637
  PAW double counting   =    199882.94820844  -200877.43212550
  entropy T*S    EENTRO =        -0.00000000
  eigenvalues    EBANDS =    -25742.51309226
  atomic energy  EATOM  =    178577.25249613
  Solvation  Ediel_sol  =         0.00000000
  ---------------------------------------------------
  free energy    TOTEN  =     -1765.41975137 eV

  energy without entropy =    -1765.41975137  energy(sigma->0) =    -1765.41975137


--------------------------------------------------------------------------------------------------------




--------------------------------------- Iteration      1(   6)  ---------------------------------------


    POTLOK:  cpu time    0.2649: real time    0.2680
    SETDIJ:  cpu time    1.3746: real time    1.3753
     EDDAV:  cpu time  156.6429: real time  157.5770
       DOS:  cpu time    0.0022: real time    0.0022
    CHARGE:  cpu time    4.2927: real time    4.2956
    MIXING:  cpu time    0.0082: real time    0.0082
    --------------------------------------------
      LOOP:  cpu time  162.5855: real time  163.5262

 eigenvalue-minimisations  : 26928
 total energy-change (2. order) : 0.5502660E+01  (-0.4869098E+01)
 number of electron    1923.0000029 magnetization       1.0000000
 augmentation part      496.3238954 magnetization       0.5587340

 Broyden mixing:
  rms(total) = 0.13994E+01    rms(broyden)= 0.13990E+01
  rms(prec ) = 0.15011E+01
  weight for this iteration     100.00

 eigenvalues of (default mixing * dielectric matrix)
  average eigenvalue GAMMA=   0.7160
  0.9398  0.9398  0.6066  0.6066  0.4872

 Free energy of the ion-electron system (eV)
  ---------------------------------------------------
  alpha Z        PSCENC =      6118.73324990
  Ewald energy   TEWEN  =   -103129.52305445
  -Hartree energ DENC   =    -65525.13341895
  -exchange      EXHF   =         0.00000000
  -V(xc)+E(xc)   XCENC  =      8972.61420107
  PAW double counting   =    199504.48761331  -200507.49674292
  entropy T*S    EENTRO =        -0.00000000
  eigenvalues    EBANDS =    -25770.85143596
  atomic energy  EATOM  =    178577.25249613
  Solvation  Ediel_sol  =         0.00000000
  ---------------------------------------------------
  free energy    TOTEN  =     -1759.91709186 eV

  energy without entropy =    -1759.91709186  energy(sigma->0) =    -1759.91709186


--------------------------------------------------------------------------------------------------------




--------------------------------------- Iteration      1(   7)  ---------------------------------------


    POTLOK:  cpu time    0.2567: real time    0.2591
    SETDIJ:  cpu time    1.3724: real time    1.3736
     EDDAV:  cpu time  152.5297: real time  153.6744
       DOS:  cpu time    0.0022: real time    0.0022
    CHARGE:  cpu time    4.2949: real time    4.3189
    MIXING:  cpu time    0.0088: real time    0.0088
    --------------------------------------------
      LOOP:  cpu time  158.4648: real time  159.6369

 eigenvalue-minimisations  : 26360
 total energy-change (2. order) : 0.1137659E+01  (-0.8429068E+00)
 number of electron    1923.0000029 magnetization       1.0000000
 augmentation part      496.8064214 magnetization       0.5759326

 Broyden mixing:
  rms(total) = 0.95938E+00    rms(broyden)= 0.95899E+00
  rms(prec ) = 0.10213E+01
  weight for this iteration     100.00

 eigenvalues of (default mixing * dielectric matrix)
  average eigenvalue GAMMA=   0.8922
  1.3872  1.3872  0.7318  0.7318  0.5575  0.5575

 Free energy of the ion-electron system (eV)
  ---------------------------------------------------
  alpha Z        PSCENC =      6118.73324990
  Ewald energy   TEWEN  =   -103129.52305445
  -Hartree energ DENC   =    -65509.45501665
  -exchange      EXHF   =         0.00000000
  -V(xc)+E(xc)   XCENC  =      8972.14875834
  PAW double counting   =    199284.30529254  -200288.50906249
  entropy T*S    EENTRO =        -0.00000000
  eigenvalues    EBANDS =    -25783.73209596
  atomic energy  EATOM  =    178577.25249613
  Solvation  Ediel_sol  =         0.00000000
  ---------------------------------------------------
  free energy    TOTEN  =     -1758.77943263 eV

  energy without entropy =    -1758.77943263  energy(sigma->0) =    -1758.77943263


--------------------------------------------------------------------------------------------------------




--------------------------------------- Iteration      1(   8)  ---------------------------------------


    POTLOK:  cpu time    0.2562: real time    0.2589
    SETDIJ:  cpu time    1.3940: real time    1.3961
     EDDAV:  cpu time  145.8093: real time  146.8956
       DOS:  cpu time    0.0023: real time    0.0023
    CHARGE:  cpu time    4.2666: real time    4.2695
    MIXING:  cpu time    0.0103: real time    0.0103
    --------------------------------------------
      LOOP:  cpu time  151.7386: real time  152.8327

 eigenvalue-minimisations  : 24608
 total energy-change (2. order) : 0.5277968E-03  (-0.1215051E+01)
 number of electron    1923.0000029 magnetization       1.0000000
[...]
   81        1.574   3.461   0.000   5.035
   82        1.575   3.464   0.000   5.038
   83        1.572   3.464   0.000   5.036
   84        1.576   3.474   0.000   5.050
   85        1.575   3.462   0.000   5.038
   86        1.575   3.466   0.000   5.041
   87        1.576   3.463   0.000   5.039
   88        1.575   3.466   0.000   5.040
   89        1.575   3.462   0.000   5.037
   90        1.575   3.459   0.000   5.034
   91        1.574   3.460   0.000   5.034
   92        1.574   3.461   0.000   5.035
   93        1.578   3.473   0.000   5.051
   94        1.577   3.473   0.000   5.049
   95        1.576   3.475   0.000   5.052
   96        1.568   3.475   0.000   5.043
   97        1.575   3.466   0.000   5.041
   98        1.576   3.475   0.000   5.051
   99        1.575   3.467   0.000   5.042
  100        1.576   3.458   0.000   5.034
  101        1.574   3.460   0.000   5.035
  102        1.575   3.461   0.000   5.036
  103        1.576   3.460   0.000   5.036
  104        1.574   3.461   0.000   5.035
  105        1.576   3.475   0.000   5.051
  106        1.575   3.463   0.000   5.038
  107        1.575   3.463   0.000   5.038
  108        1.576   3.474   0.000   5.050
  109        1.575   3.464   0.000   5.038
  110        1.575   3.461   0.000   5.035
  111        1.576   3.473   0.000   5.050
  112        1.577   3.464   0.000   5.041
  113        1.573   3.477   0.000   5.050
  114        1.577   3.476   0.000   5.053
  115        1.574   3.465   0.000   5.039
  116        1.575   3.463   0.000   5.038
  117        1.575   3.461   0.000   5.036
  118        1.575   3.463   0.000   5.038
  119        1.576   3.475   0.000   5.051
  120        1.575   3.461   0.000   5.036
  121        1.575   3.464   0.000   5.039
  122        1.575   3.472   0.000   5.048
  123        1.577   3.473   0.000   5.050
  124        1.576   3.472   0.000   5.048
  125        1.576   3.477   0.000   5.053
  126        1.576   3.471   0.000   5.047
  127        1.575   3.458   0.000   5.033
  128        1.575   3.461   0.000   5.036
  129        1.576   3.471   0.000   5.047
  130        1.737   4.370   0.000   6.107
  131        1.737   4.369   0.000   6.106
  132        1.737   4.380   0.000   6.117
  133        1.738   4.388   0.000   6.126
  134        1.739   4.386   0.000   6.125
  135        1.737   4.369   0.000   6.106
  136        1.736   4.368   0.000   6.104
  137        1.738   4.380   0.000   6.119
  138        1.739   4.381   0.000   6.120
  139        1.739   4.388   0.000   6.128
  140        1.739   4.388   0.000   6.127
  141        1.739   4.380   0.000   6.119
  142        1.738   4.386   0.000   6.124
  143        1.738   4.387   0.000   6.125
  144        1.739   4.387   0.000   6.126
  145        1.738   4.382   0.000   6.121
  146        1.737   4.381   0.000   6.118
  147        1.736   4.369   0.000   6.106
  148        1.736   4.369   0.000   6.105
  149        1.739   4.387   0.000   6.126
  150        1.738   4.389   0.000   6.127
  151        1.738   4.376   0.000   6.115
  152        1.738   4.381   0.000   6.118
  153        1.737   4.382   0.000   6.119
  154        1.737   4.371   0.000   6.108
  155        1.737   4.372   0.000   6.109
  156        1.736   4.368   0.000   6.105
  157        1.737   4.367   0.000   6.104
  158        1.738   4.376   0.000   6.114
  159        1.738   4.377   0.000   6.115
  160        1.737   4.369   0.000   6.105
  161        1.736   4.369   0.000   6.106
  162        1.736   4.369   0.000   6.106
  163        1.736   4.368   0.000   6.104
  164        1.738   4.380   0.000   6.117
  165        1.737   4.369   0.000   6.106
  166        1.736   4.369   0.000   6.106
  167        1.737   4.369   0.000   6.106
  168        1.737   4.371   0.000   6.108
  169        1.738   4.378   0.000   6.116
  170        1.738   4.381   0.000   6.118
  171        1.737   4.370   0.000   6.107
  172        1.738   4.389   0.000   6.127
  173        1.737   4.372   0.000   6.109
  174        1.737   4.369   0.000   6.106
  175        1.739   4.383   0.000   6.122
  176        1.737   4.368   0.000   6.104
  177        1.738   4.381   0.000   6.119
  178        1.737   4.369   0.000   6.106
  179        1.738   4.378   0.000   6.116
  180        1.738   4.382   0.000   6.120
  181        1.736   4.369   0.000   6.105
  182        1.738   4.377   0.000   6.115
  183        1.737   4.370   0.000   6.107
  184        1.736   4.383   0.000   6.119
  185        1.737   4.382   0.000   6.120
  186        1.738   4.382   0.000   6.119
  187        1.737   4.371   0.000   6.107
  188        1.738   4.382   0.000   6.119
  189        1.738   4.382   0.000   6.120
  190        1.738   4.381   0.000   6.119
  191        1.739   4.388   0.000   6.127
  192        1.737   4.370   0.000   6.107
  193        1.739   4.387   0.000   6.126
  194        1.737   4.368   0.000   6.105
  195        1.737   4.371   0.000   6.108
  196        1.737   4.381   0.000   6.119
  197        1.737   4.369   0.000   6.106
  198        1.738   4.381   0.000   6.119
  199        1.738   4.382   0.000   6.121
  200        1.738   4.381   0.000   6.119
  201        1.738   4.381   0.000   6.119
  202        1.738   4.385   0.000   6.123
  203        1.738   4.381   0.000   6.118
  204        1.738   4.379   0.000   6.117
  205        1.737   4.378   0.000   6.115
  206        1.737   4.372   0.000   6.109
  207        1.737   4.369   0.000   6.106
  208        1.737   4.381   0.000   6.119
  209        1.737   4.380   0.000   6.117
  210        1.737   4.371   0.000   6.107
  211        1.737   4.371   0.000   6.108
  212        1.737   4.369   0.000   6.106
  213        1.737   4.381   0.000   6.118
  214        1.736   4.367   0.000   6.104
  215        1.738   4.381   0.000   6.120
  216        1.736   4.368   0.000   6.105
  217        1.737   4.368   0.000   6.105
  218        1.737   4.382   0.000   6.119
  219        1.739   4.379   0.000   6.117
  220        1.738   4.379   0.000   6.118
  221        1.738   4.381   0.000   6.119
  222        1.738   4.381   0.000   6.118
  223        1.737   4.384   0.000   6.121
  224        1.738   4.383   0.000   6.121
  225        1.738   4.382   0.000   6.120
  226        1.738   4.378   0.000   6.116
  227        1.737   4.379   0.000   6.116
  228        1.737   4.380   0.000   6.117
  229        1.738   4.380   0.000   6.118
  230        1.737   4.370   0.000   6.106
  231        1.738   4.378   0.000   6.116
  232        1.737   4.370   0.000   6.107
  233        1.738   4.380   0.000   6.118
  234        1.738   4.372   0.000   6.109
  235        1.737   4.372   0.000   6.109
  236        1.739   4.388   0.000   6.127
  237        1.739   4.387   0.000   6.125
  238        1.737   4.381   0.000   6.118
  239        1.738   4.377   0.000   6.116
  240        1.738   4.381   0.000   6.119
  241        1.738   4.377   0.000   6.115
  242        1.738   4.387   0.000   6.126
  243        1.738   4.388   0.000   6.126
  244        1.738   4.380   0.000   6.118
  245        1.738   4.379   0.000   6.117
  246        1.738   4.378   0.000   6.116
  247        1.738   4.386   0.000   6.124
  248        1.738   4.379   0.000   6.117
  249        1.738   4.386   0.000   6.124
  250        1.738   4.379   0.000   6.118
  251        1.738   4.380   0.000   6.119
  252        1.738   4.381   0.000   6.119
  253        1.739   4.378   0.000   6.117
  254        1.739   4.387   0.000   6.126
  255        1.738   4.378   0.000   6.116
  256        1.739   4.386   0.000   6.125
  257        1.738   4.380   0.000   6.118
--------------------------------------------------
tot        345.5771195.695 112.6561653.927
 


 magnetization (x)
 
# of ion       s       p       d       tot
------------------------------------------
    1        0.000   0.000   0.000   0.000
    2       -0.000  -0.000  -0.000  -0.000
    3       -0.000  -0.000   0.004   0.004
    4       -0.000   0.000  -0.000  -0.000
    5       -0.000   0.000   0.007   0.007
    6        0.000   0.000   0.000   0.000
    7        0.000   0.000   0.000   0.000
    8        0.000   0.000  -0.000  -0.000
    9        0.000   0.000   0.000   0.000
   10       -0.000  -0.000  -0.000  -0.000
   11       -0.000  -0.000   0.000   0.000
   12        0.000  -0.000  -0.000  -0.000
   13       -0.000  -0.000  -0.000  -0.000
   14        0.000  -0.000  -0.000  -0.000
   15       -0.000  -0.000  -0.000  -0.000
   16        0.000  -0.000   0.000   0.000
   17        0.000  -0.000   0.000   0.000
   18       -0.000  -0.000  -0.000  -0.000
   19        0.005   0.006   0.924   0.935
   20       -0.000  -0.000  -0.000  -0.000
   21       -0.000  -0.000   0.000   0.000
   22        0.000  -0.000  -0.000  -0.000
   23        0.000   0.000   0.001   0.001
   24        0.000   0.000   0.000   0.000
   25        0.000   0.000   0.000   0.000
   26       -0.000  -0.000  -0.004  -0.005
   27       -0.000  -0.000   0.000  -0.000
   28        0.000   0.000   0.000   0.000
   29       -0.000  -0.000  -0.000  -0.000
   30       -0.000  -0.000  -0.000  -0.000
   31       -0.000  -0.000   0.000   0.000
   32        0.000   0.000   0.000   0.000
   33        0.000   0.000   0.000   0.000
   34        0.000   0.000   0.000   0.000
   35        0.000   0.000   0.000   0.000
   36       -0.000  -0.000  -0.000  -0.000
   37        0.000   0.000   0.001   0.001
   38       -0.000  -0.000  -0.000  -0.000
   39        0.000   0.000   0.003   0.003
   40        0.000  -0.000  -0.000  -0.000
   41        0.000   0.000   0.002   0.002
   42        0.000  -0.000   0.000   0.000
   43       -0.000  -0.000  -0.000  -0.000
   44        0.000   0.000   0.000   0.000
   45       -0.000  -0.000  -0.000  -0.000
   46       -0.000  -0.000  -0.000  -0.000
   47       -0.000  -0.000   0.000   0.000
   48        0.000  -0.000   0.000   0.000
   49       -0.000  -0.000  -0.000  -0.000
   50        0.000  -0.000   0.000   0.000
   51        0.000   0.000   0.003   0.003
   52       -0.000  -0.000  -0.000  -0.000
   53        0.000   0.000   0.000   0.000
   54       -0.000  -0.000  -0.000  -0.000
   55       -0.000  -0.000   0.010   0.010
   56        0.000   0.000   0.000   0.000
   57        0.000   0.000   0.000   0.000
   58        0.000   0.000   0.000   0.000
   59       -0.000  -0.000   0.000   0.000
   60       -0.000  -0.000  -0.000  -0.000
   61       -0.000  -0.000   0.000   0.000
   62        0.000  -0.000   0.000   0.000
   63       -0.000  -0.000   0.000   0.000
   64        0.000   0.000   0.000   0.000
   65        0.000   0.000   0.000   0.000
   66       -0.000  -0.000   0.000  -0.000
   67       -0.000  -0.000   0.000  -0.000
   68       -0.000  -0.000   0.000  -0.000
   69       -0.000  -0.000   0.000  -0.000
   70        0.000   0.000   0.000   0.000
   71       -0.000  -0.000   0.000  -0.000
   72       -0.000  -0.000   0.000  -0.000
   73       -0.000  -0.000   0.000  -0.000
   74       -0.001  -0.019   0.000  -0.020
   75       -0.000  -0.000   0.000  -0.000
   76       -0.000  -0.000   0.000  -0.000
   77       -0.000  -0.000   0.000  -0.000
   78        0.000   0.000   0.000   0.000
   79       -0.000  -0.000   0.000  -0.000
   80       -0.000  -0.000   0.000  -0.000
   81       -0.000  -0.000   0.000  -0.000
   82       -0.000  -0.000   0.000  -0.000
   83       -0.000  -0.000   0.000  -0.000
   84       -0.000  -0.000   0.000  -0.000
   85       -0.000  -0.000   0.000  -0.000
   86       -0.000  -0.000   0.000  -0.000
   87       -0.000  -0.000   0.000  -0.000
   88       -0.000  -0.000   0.000  -0.000
   89        0.000   0.000   0.000   0.000
   90        0.000   0.000   0.000   0.000
   91       -0.000  -0.000   0.000  -0.000
   92       -0.000  -0.000   0.000  -0.000
   93       -0.000  -0.001   0.000  -0.001
   94       -0.000  -0.000   0.000  -0.000
   95       -0.000  -0.000   0.000  -0.000
   96       -0.000  -0.000   0.000  -0.000
   97       -0.000  -0.000   0.000  -0.000
   98       -0.000  -0.000   0.000  -0.000
   99       -0.000  -0.000   0.000  -0.000
  100       -0.000  -0.000   0.000  -0.000
  101       -0.000  -0.000   0.000  -0.000
  102       -0.000  -0.000   0.000  -0.000
  103        0.000   0.000   0.000   0.000
  104       -0.000  -0.001   0.000  -0.001
  105       -0.000   0.000   0.000   0.000
  106       -0.000  -0.000   0.000  -0.000
  107        0.000   0.000   0.000   0.000
  108       -0.000  -0.000   0.000  -0.000
  109       -0.000  -0.000   0.000  -0.000
  110        0.000   0.000   0.000   0.000
  111       -0.000  -0.000   0.000  -0.000
  112       -0.000  -0.000   0.000  -0.000
  113       -0.000  -0.000   0.000  -0.000
  114       -0.000  -0.000   0.000  -0.000
  115        0.000   0.000   0.000   0.000
  116       -0.000  -0.000   0.000  -0.000
  117        0.000   0.000   0.000   0.000
  118        0.000   0.000   0.000   0.000
  119       -0.000  -0.000   0.000  -0.000
  120        0.000   0.000   0.000   0.000
  121       -0.000  -0.000   0.000  -0.000
  122        0.000  -0.000   0.000  -0.000
  123       -0.000  -0.000   0.000  -0.000
  124       -0.000  -0.001   0.000  -0.001
  125       -0.000  -0.000   0.000  -0.000
  126       -0.000  -0.000   0.000  -0.000
  127       -0.000  -0.000   0.000  -0.000
  128       -0.000  -0.000   0.000  -0.000
  129       -0.000  -0.000   0.000  -0.000
  130       -0.000  -0.000   0.000  -0.000
  131       -0.000  -0.000   0.000  -0.000
  132       -0.000  -0.000   0.000  -0.000
  133       -0.000  -0.000   0.000  -0.000
  134       -0.000  -0.000   0.000  -0.000
  135       -0.000  -0.000   0.000  -0.000
  136        0.000  -0.000   0.000  -0.000
  137       -0.000  -0.000   0.000  -0.000
  138       -0.000  -0.000   0.000  -0.000
  139       -0.000  -0.000   0.000  -0.000
  140        0.000   0.000   0.000   0.000
  141       -0.000  -0.000   0.000  -0.000
  142       -0.000  -0.004   0.000  -0.004
  143       -0.000  -0.000   0.000  -0.000
  144       -0.000  -0.000   0.000  -0.000
  145       -0.000  -0.000   0.000  -0.000
  146       -0.000  -0.000   0.000  -0.000
  147       -0.000  -0.000   0.000  -0.000
  148        0.000  -0.000   0.000  -0.000
  149       -0.000  -0.000   0.000  -0.000
  150        0.000  -0.000   0.000  -0.000
  151        0.000   0.000   0.000   0.000
  152        0.000  -0.000   0.000  -0.000
  153       -0.000   0.000   0.000   0.000
  154       -0.000  -0.000   0.000  -0.000
  155       -0.000  -0.000   0.000  -0.000
  156        0.000  -0.000   0.000  -0.000
  157       -0.000  -0.000   0.000  -0.000
  158       -0.000  -0.000   0.000  -0.000
  159       -0.000   0.000   0.000  -0.000
  160       -0.000  -0.000   0.000  -0.000
  161       -0.000  -0.000   0.000  -0.000
  162       -0.000  -0.000   0.000  -0.000
  163        0.000  -0.000   0.000  -0.000
  164       -0.000  -0.000   0.000  -0.000
  165       -0.000  -0.000   0.000  -0.000
  166       -0.000  -0.000   0.000  -0.000
  167       -0.000  -0.000   0.000  -0.000
  168       -0.000  -0.000   0.000  -0.000
  169       -0.000  -0.000   0.000  -0.000
  170        0.000  -0.000   0.000  -0.000
  171        0.000   0.000   0.000   0.000
  172        0.000   0.000   0.000   0.000
  173        0.000   0.000   0.000   0.000
  174       -0.000   0.000   0.000   0.000
  175       -0.000  -0.000   0.000  -0.000
  176       -0.000   0.000   0.000   0.000
  177       -0.000  -0.000   0.000  -0.000
  178        0.000   0.000   0.000   0.000
  179       -0.000  -0.000   0.000  -0.000
  180        0.000   0.000   0.000   0.000
  181       -0.000  -0.000   0.000  -0.000
  182        0.000  -0.000   0.000  -0.000
  183        0.000  -0.000   0.000  -0.000
  184       -0.000   0.001   0.000   0.001
  185        0.000   0.000   0.000   0.000
  186       -0.000  -0.000   0.000  -0.000
  187        0.000   0.000   0.000   0.000
  188       -0.000  -0.000   0.000  -0.000
  189        0.000   0.000   0.000   0.000
  190       -0.000  -0.000   0.000  -0.000
  191        0.000   0.000   0.000   0.000
  192       -0.000   0.000   0.000   0.000
  193        0.000  -0.000   0.000  -0.000
  194       -0.000  -0.000   0.000  -0.000
  195        0.000   0.000   0.000   0.000
  196        0.000   0.000   0.000   0.000
  197       -0.000  -0.000   0.000  -0.000
  198       -0.000  -0.000   0.000  -0.000
  199        0.000  -0.000   0.000  -0.000
  200       -0.000  -0.000   0.000  -0.000
  201        0.000   0.000   0.000   0.000
  202       -0.000   0.001   0.000   0.001
  203       -0.000  -0.000   0.000  -0.000
  204       -0.000  -0.000   0.000  -0.000
  205       -0.000  -0.000   0.000  -0.000
  206       -0.000  -0.000   0.000  -0.000
  207       -0.000  -0.000   0.000  -0.000
  208        0.000   0.000   0.000   0.000
  209       -0.000  -0.000   0.000  -0.000
  210       -0.000  -0.000   0.000  -0.000
  211        0.000  -0.000   0.000  -0.000
  212        0.000  -0.000   0.000  -0.000
  213       -0.000   0.001   0.000   0.001
  214       -0.000  -0.000   0.000  -0.000
  215        0.000  -0.000   0.000  -0.000
  216        0.000   0.000   0.000   0.000
  217       -0.000  -0.000   0.000  -0.000
  218        0.000  -0.000   0.000  -0.000
  219       -0.000  -0.000   0.000  -0.000
  220        0.000  -0.000   0.000  -0.000
  221       -0.000  -0.000   0.000  -0.000
  222       -0.000  -0.000   0.000  -0.000
  223       -0.000   0.002   0.000   0.002
  224       -0.000  -0.000   0.000  -0.000
  225       -0.000  -0.000   0.000  -0.000
  226       -0.000  -0.000   0.000  -0.000
  227        0.000  -0.000   0.000  -0.000
  228       -0.000  -0.000   0.000  -0.000
  229        0.000   0.000   0.000   0.000
  230       -0.000   0.000   0.000   0.000
  231        0.000   0.000   0.000   0.000
  232       -0.000   0.000   0.000   0.000
  233       -0.000  -0.000   0.000  -0.000
  234        0.000   0.000   0.000   0.000
  235        0.000   0.000   0.000   0.000
  236        0.000   0.000   0.000   0.000
  237       -0.000  -0.000   0.000  -0.000
  238        0.000   0.000   0.000   0.000
  239        0.000  -0.000   0.000  -0.000
  240       -0.000  -0.000   0.000  -0.000
  241       -0.000  -0.000   0.000  -0.000
  242        0.000   0.000   0.000   0.000
  243       -0.000  -0.000   0.000  -0.000
  244        0.000  -0.000   0.000  -0.000
  245       -0.000  -0.000   0.000  -0.000
  246       -0.000  -0.000   0.000  -0.000
  247        0.000   0.000   0.000   0.000
  248        0.000  -0.000   0.000  -0.000
  249        0.000   0.000   0.000   0.000
  250       -0.000  -0.000   0.000  -0.000
  251        0.000   0.000   0.000   0.000
  252        0.000   0.000   0.000   0.000
  253        0.000   0.000   0.000   0.000
  254        0.000   0.000   0.000   0.000
  255       -0.000  -0.000   0.000  -0.000
  256       -0.000  -0.000   0.000  -0.000
  257        0.000   0.000   0.000   0.000
--------------------------------------------------
tot          0.002  -0.017   0.952   0.937
 

 total amount of memory used by VASP MPI-rank0   277500. kBytes
=======================================================================

   base      :      30000. kBytes
   nonlr-proj:      43925. kBytes
   fftplans  :      25853. kBytes
   grid      :      28262. kBytes
   one-center:        684. kBytes
   wavefun   :     148776. kBytes
 
  
  
 General timing and accounting informations for this job:
 ========================================================
  
                  Total CPU time used (sec):     4871.928
                            User time (sec):     4470.634
                          System time (sec):      401.294
                         Elapsed time (sec):     4919.340
  
                   Maximum memory used (kb):      613788.
                   Average memory used (kb):           0.
  
                          Minor page faults:       396359
                          Major page faults:           24
                 Voluntary context switches:        42971
