 vasp.6.3.0 20Jan22 (build Jan 25 2022 13:20:17) complex                        
  
 executed on             LinuxIFC date 2024.06.12  10:00:16
 running on   80 total cores
 distrk:  each k-point on   80 cores,    1 groups
 distr:  one band on NCORE=   8 cores,   10 groups


--------------------------------------------------------------------------------------------------------


 INCAR:
   SYSTEM = LTO
   ISTART = 1
   ENCUT = 700.0
   IALGO = 38
   EDIFF = 1E-6
   PREC = Accurate
   ISPIN = 2
   LMAXMIX = 4
   ADDGRID = .TRUE.
   LASPH = .TRUE.
   LREAL = Auto
   ROPT = 1E-4 1E-4 1E-4
   GGA = PS
   LDAU = .TRUE.
   LDAUTYPE = 2
   LDAUL = 2   -1    -1
   LDAUU = 4.2  0.0  0.0
   LDAUJ = 0.0  0.0  0.0
   NSW = 100
   EDIFFG = -0.01
   IBRION = 1
   ISIF = 3
   ISMEAR = 0
   SIGMA = 0.01
   ISYM = 0
   LORBIT = 11
   NEDOS = 3001
   NWRITE = 2
   NCORE = 8

 POTCAR:   PAW_PBE Ti_pv 07Sep2000                
 POTCAR:   PAW_PBE O 08Apr2002                    
 POTCAR:    PAW_PBE F 08Apr2002                   
 -----------------------------------------------------------------------------
|                                                                             |
|           W    W    AA    RRRRR   N    N  II  N    N   GGGG   !!!           |
|           W    W   A  A   R    R  NN   N  II  NN   N  G    G  !!!           |
|           W    W  A    A  R    R  N N  N  II  N N  N  G       !!!           |
|           W WW W  AAAAAA  RRRRR   N  N N  II  N  N N  G  GGG   !            |
|           WW  WW  A    A  R   R   N   NN  II  N   NN  G    G                |
|           W    W  A    A  R    R  N    N  II  N    N   GGGG   !!!           |
|                                                                             |
|     You use a magnetic or noncollinear calculation, but did not specify     |
|     the initial magnetic moment with the MAGMOM tag. Note that a            |
|     default of 1 will be used for all atoms. This ferromagnetic setup       |
|     may break the symmetry of the crystal, in particular it may rule        |
|     out finding an antiferromagnetic solution. Thence, we recommend         |
|     setting the initial magnetic moment manually or verifying carefully     |
|     that this magnetic setup is desired.                                    |
|                                                                             |
 -----------------------------------------------------------------------------

 POTCAR:   PAW_PBE Ti_pv 07Sep2000                
   VRHFIN =Ti: d3 s1                                                                                
   LEXCH  = PE                                                                                      
   EATOM  =  1042.3781 eV,   76.6126 Ry                                                             
                                                                                                    
   TITEL  = PAW_PBE Ti_pv 07Sep2000                                                                 
   LULTRA =        F    use ultrasoft PP ?                                                          
   IUNSCR =        1    unscreen: 0-lin 1-nonlin 2-no                                               
   RPACOR =    2.200    partial core radius                                                         
   POMASS =   47.880; ZVAL   =   10.000    mass and valenz                                          
   RCORE  =    2.500    outmost cutoff radius                                                       
   RWIGS  =    2.500; RWIGS  =    1.323    wigner-seitz radius (au A)                               
   ENMAX  =  222.338; ENMIN  =  166.753 eV                                                          
   RCLOC  =    1.701    cutoff for local pot                                                        
   LCOR   =        T    correct aug charges                                                         
   LPAW   =        T    paw PP                                                                      
   EAUG   =  482.848                                                                                
   DEXC   =    -.008                                                                                
   RMAX   =    3.092    core radius for proj-oper                                                   
   RAUG   =    1.300    factor for augmentation sphere                                              
   RDEP   =    2.538    radius for radial grids                                                     
   QCUT   =   -4.042; QGAM   =    8.085    optimization parameters                                  
                                                                                                    
   Description                                                                                      
     l     E      TYP  RCUT    TYP  RCUT                                                            
     1   .000     23  2.300                                                                         
     1  -.100     23  2.300                                                                         
     2   .000     23  2.500                                                                         
     2   .000     23  2.500                                                                         
     0   .000     23  2.500                                                                         
     0  1.500     23  2.500                                                                         
     3   .000      7   .000                                                                         
  local pseudopotential read in
  partial core-charges read in
  atomic valenz-charges read in
  non local Contribution for L=           1  read in
    real space projection operators read in
  non local Contribution for L=           1  read in
    real space projection operators read in
  non local Contribution for L=           2  read in
    real space projection operators read in
  non local Contribution for L=           2  read in
    real space projection operators read in
  non local Contribution for L=           0  read in
    real space projection operators read in
  non local Contribution for L=           0  read in
    real space projection operators read in
    PAW grid and wavefunctions read in
 
   number of l-projection  operators is LMAX  =           6
   number of lm-projection operators is LMMAX =          18
 
 POTCAR:   PAW_PBE O 08Apr2002                    
   VRHFIN =O: s2p4                                                                                  
   LEXCH  = PE                                                                                      
   EATOM  =   432.3788 eV,   31.7789 Ry                                                             
                                                                                                    
   TITEL  = PAW_PBE O 08Apr2002                                                                     
   LULTRA =        F    use ultrasoft PP ?                                                          
   IUNSCR =        0    unscreen: 0-lin 1-nonlin 2-no                                               
   RPACOR =     .000    partial core radius                                                         
   POMASS =   16.000; ZVAL   =    6.000    mass and valenz                                          
   RCORE  =    1.520    outmost cutoff radius                                                       
   RWIGS  =    1.550; RWIGS  =     .820    wigner-seitz radius (au A)                               
   ENMAX  =  400.000; ENMIN  =  300.000 eV                                                          
   ICORE  =        2    local potential                                                             
   LCOR   =        T    correct aug charges                                                         
   LPAW   =        T    paw PP                                                                      
   EAUG   =  605.392                                                                                
   DEXC   =     .000                                                                                
   RMAX   =    2.264    core radius for proj-oper                                                   
   RAUG   =    1.300    factor for augmentation sphere                                              
   RDEP   =    1.550    radius for radial grids                                                     
   QCUT   =   -5.520; QGAM   =   11.041    optimization parameters                                  
                                                                                                    
   Description                                                                                      
     l     E      TYP  RCUT    TYP  RCUT                                                            
     0   .000     23  1.200                                                                         
     0  -.700     23  1.200                                                                         
     1   .000     23  1.520                                                                         
     1   .600     23  1.520                                                                         
     2   .000      7  1.500                                                                         
  local pseudopotential read in
  atomic valenz-charges read in
  non local Contribution for L=           0  read in
    real space projection operators read in
  non local Contribution for L=           0  read in
    real space projection operators read in
  non local Contribution for L=           1  read in
    real space projection operators read in
  non local Contribution for L=           1  read in
    real space projection operators read in
    PAW grid and wavefunctions read in
 
   number of l-projection  operators is LMAX  =           4
   number of lm-projection operators is LMMAX =           8
 
 POTCAR:    PAW_PBE F 08Apr2002                   
   VRHFIN =F: s2p5                                                                                  
   LEXCH  = PE                                                                                      
   EATOM  =   659.6475 eV,   48.4827 Ry                                                             
                                                                                                    
   TITEL  = PAW_PBE F 08Apr2002                                                                     
   LULTRA =        F    use ultrasoft PP ?                                                          
   IUNSCR =        1    unscreen: 0-lin 1-nonlin 2-no                                               
   RPACOR =    1.200    partial core radius                                                         
   POMASS =   18.998; ZVAL   =    7.000    mass and valenz                                          
   RCORE  =    1.520    outmost cutoff radius                                                       
   RWIGS  =    1.500; RWIGS  =    0.794    wigner-seitz radius (au A)                               
   ENMAX  =  400.000; ENMIN  =  300.000 eV                                                          
   ICORE  =        2    local potential                                                             
   LCOR   =        T    correct aug charges                                                         
   LPAW   =        T    paw PP                                                                      
   EAUG   =  613.614                                                                                
   RMAX   =    1.555    core radius for proj-oper                                                   
   RAUG   =    1.300    factor for augmentation sphere                                              
   RDEP   =    1.539    radius for radial grids                                                     
   RDEPT  =    1.299    core radius for aug-charge                                                  
                                                                                                    
   Atomic configuration                                                                             
    4 entries                                                                                       
     n  l   j            E        occ.                                                              
     1  0  0.50      -663.3661   2.0000                                                             
     2  0  0.50       -29.8995   2.0000                                                             
     2  1  0.50       -11.1114   5.0000                                                             
     3  2  1.50       -10.8847   0.0000                                                             
   Description                                                                                      
     l       E           TYP  RCUT    TYP  RCUT                                                     
     0    -29.8995018     23  1.200                                                                 
     0     -9.5240782     23  1.200                                                                 
     1    -11.1113914     23  1.520                                                                 
     1      1.3605826     23  1.520                                                                 
     2    -10.8846608      7  1.500                                                                 
  local pseudopotential read in
  partial core-charges read in
  partial kinetic energy density read in
  atomic valenz-charges read in
  non local Contribution for L=           0  read in
    real space projection operators read in
  non local Contribution for L=           0  read in
    real space projection operators read in
  non local Contribution for L=           1  read in
    real space projection operators read in
  non local Contribution for L=           1  read in
    real space projection operators read in
    PAW grid and wavefunctions read in
 
   number of l-projection  operators is LMAX  =           4
   number of lm-projection operators is LMMAX =           8
 
 Optimization of the real space projectors (new method)

 maximal supplied QI-value         = 15.12
 optimisation between [QCUT,QGAM] = [ 13.45, 27.06] = [ 50.69,205.06] Ry 
 Optimized for a Real-space Cutoff    1.49 Angstroem

   l    n(q)    QCUT    max X(q) W(low)/X(q) W(high)/X(q)  e(spline) 
   1     12    13.455     4.841    0.13E-05    0.83E-06    0.56E-07
   1     12    13.455     5.701    0.32E-04    0.25E-04    0.17E-06
   2     11    13.455     4.569    0.64E-05    0.34E-05    0.50E-07
   2     11    13.455    32.276    0.49E-04    0.38E-04    0.46E-06
   0     12    13.455    30.046    0.17E-04    0.41E-05    0.51E-07
   0     12    13.455    45.433    0.12E-04    0.27E-04    0.38E-06
 Optimization of the real space projectors (new method)

 maximal supplied QI-value         = 24.76
 optimisation between [QCUT,QGAM] = [ 13.37, 26.98] = [ 50.04,203.89] Ry 
 Optimized for a Real-space Cutoff    1.17 Angstroem

   l    n(q)    QCUT    max X(q) W(low)/X(q) W(high)/X(q)  e(spline) 
   0      9    13.368     4.192    0.20E-04    0.58E-05    0.56E-07
   0      9    13.368     8.473    0.60E-04    0.52E-04    0.21E-06
   1      9    13.368     2.474    0.22E-04    0.17E-04    0.28E-07
   1      9    13.368     3.912    0.94E-04    0.97E-04    0.20E-06
 Optimization of the real space projectors (new method)

 maximal supplied QI-value         = 24.76
 optimisation between [QCUT,QGAM] = [ 13.37, 26.98] = [ 50.04,203.89] Ry 
 Optimized for a Real-space Cutoff    1.17 Angstroem

   l    n(q)    QCUT    max X(q) W(low)/X(q) W(high)/X(q)  e(spline) 
   0      9    13.368    14.049    0.39E-04    0.34E-04    0.16E-06
   0      9    13.368     8.945    0.54E-04    0.47E-04    0.20E-06
   1      9    13.368     7.086    0.99E-04    0.10E-03    0.23E-06
   1      9    13.368     6.747    0.86E-04    0.89E-04    0.21E-06
 -----------------------------------------------------------------------------
|                                                                             |
|               ----> ADVICE to this user running VASP <----                  |
|                                                                             |
|     You enforced a specific xc type in the INCAR file but a different       |
|     type was found in the POTCAR file.                                      |
|     I HOPE YOU KNOW WHAT YOU ARE DOING!                                     |
|                                                                             |
 -----------------------------------------------------------------------------

 PAW_PBE Ti_pv 07Sep2000                :
 energy of atom  1       EATOM=-1042.3781
 kinetic energy error for atom=    0.0006 (will be added to EATOM!!)
 PAW_PBE O 08Apr2002                    :
 energy of atom  2       EATOM= -432.3788
 kinetic energy error for atom=    0.0091 (will be added to EATOM!!)
  PAW_PBE F 08Apr2002                   :
 energy of atom  3       EATOM= -659.6475
 kinetic energy error for atom=    0.0140 (will be added to EATOM!!)
 
 
 POSCAR: Ti27 O27 F54
  positions in direct lattice
  velocities in cartesian coordinates
 exchange correlation table for  LEXCH =       14
   RHO(1)=    0.500       N(1)  =     2000
   RHO(2)=  100.500       N(2)  =     4000
 


--------------------------------------------------------------------------------------------------------


 ion  position               nearest neighbor table
   1  0.987  0.999  0.999-  43 1.77  91 1.93  92 1.93  59 1.94  55 1.94  73 2.07
   2  0.010  0.008  0.343-  37 1.83  46 1.84  28 1.86  60 2.05  91 2.07  85 2.10
   3  0.002  0.988  0.655-  46 1.80  30 1.80  86 1.96  74 1.96  92 2.07  56 2.09
   4  0.988  0.341  0.009-  44 1.81  47 1.84  29 1.87  55 2.05  94 2.06  75 2.13
   5  0.999  0.322  0.322-  28 1.80  47 1.81  87 1.97  76 1.97  57 2.07  93 2.08
   6  0.013  0.333  0.667-  38 1.77  56 1.93  58 1.93  94 1.93  93 1.94  88 2.07
   7  0.992  0.654  0.000-  29 1.78  45 1.87  96 1.94  95 1.95  77 2.04  59 2.09
   8  0.010  0.667  0.345-  48 1.79  39 1.82  57 1.95  60 1.95  95 2.07  89 2.12
   9  0.011  0.676  0.658-  40 1.83  30 1.84  48 1.87  96 2.05  58 2.07  90 2.10
  10  0.332  0.989  0.012-  49 1.79  32 1.81  73 1.94  78 1.95  98 2.08  61 2.10
  11  0.322  0.991  0.324-  37 1.81  49 1.86  33 1.86  62 2.05  97 2.06  79 2.10
  12  0.347  0.001  0.667-  41 1.77  66 1.93  97 1.94  63 1.94  98 1.94  74 2.06
  13  0.333  0.333  0.001-  75 1.89  80 1.89  64 1.90  61 1.90  99 1.90 100 1.90
  14  0.342  0.334  0.346-  50 1.78  42 1.86  62 1.94  65 1.94  76 2.02  99 2.13
  15  0.328  0.345  0.658-  31 1.80  50 1.85  38 1.90  81 2.01  63 2.07 100 2.09
  16  0.334  0.678  0.989-  51 1.80  32 1.81  82 1.95  77 1.96 101 2.07  64 2.11
  17  0.323  0.678  0.333-  33 1.80  39 1.81 102 1.95 101 1.95  65 2.07  83 2.12
  18  0.324  0.657  0.675-  40 1.82  31 1.85  51 1.87 102 2.05  66 2.07  84 2.10
  19  0.672  0.011  0.990-  34 1.82  52 1.83  43 1.90  78 2.02  70 2.09 103 2.10
  20  0.667  0.013  0.334-  35 1.78  85 1.92  79 1.92 104 1.92 103 1.92  71 2.12
  21  0.662  0.010  0.678-  52 1.82  36 1.84  41 1.90  86 2.00  72 2.09 104 2.10
  22  0.677  0.324  0.991-  44 1.82  34 1.84  53 1.86 105 2.07  67 2.08  80 2.12
  23  0.656  0.326  0.334-  42 1.80  35 1.86 105 1.93 106 1.94  87 2.03  68 2.07
  24  0.668  0.322  0.678-  53 1.80  36 1.81  88 1.95  81 1.96 106 2.09  69 2.10
  25  0.676  0.667  0.992-  45 1.79  54 1.86  70 1.93  67 1.94  82 2.05 107 2.07
  26  0.666  0.667  0.334-  89 1.88  83 1.89 108 1.89  71 1.89  68 1.90 107 1.90
  27  0.666  0.667  0.680-  54 1.77  90 1.91  84 1.92  72 1.92  69 1.92 108 2.12
  28  0.994  0.167  0.335-   5 1.80   2 1.86
  29  0.004  0.500  0.997-   7 1.78   4 1.87
  30  0.001  0.834  0.673-   3 1.80   9 1.84
  31  0.342  0.499  0.668-  15 1.80  18 1.85
  32  0.332  0.833  0.005-  16 1.81  10 1.81
  33  0.343  0.832  0.331-  17 1.80  11 1.86
  34  0.662  0.167  0.006-  19 1.82  22 1.84
  35  0.672  0.166  0.334-  20 1.78  23 1.86
  36  0.670  0.167  0.662-  24 1.81  21 1.84
  37  0.167  0.996  0.333-  11 1.81   2 1.83
  38  0.165  0.334  0.671-   6 1.77  15 1.90
  39  0.167  0.669  0.335-  17 1.81   8 1.82
  40  0.167  0.662  0.663-  18 1.82   9 1.83
  41  0.499  0.997  0.663-  12 1.77  21 1.90
  42  0.501  0.335  0.330-  23 1.80  14 1.86
  43  0.835  0.996  0.003-   1 1.77  19 1.90
  44  0.833  0.333  1.000-   4 1.81  22 1.82
  45  0.831  0.669  0.001-  25 1.79   7 1.87
  46  0.997  0.996  0.500-   3 1.80   2 1.84
  47  0.005  0.332  0.166-   5 1.81   4 1.84
  48  0.991  0.667  0.498-   8 1.79   9 1.87
  49  0.337  0.008  0.166-  10 1.79  11 1.86
  50  0.333  0.331  0.499-  14 1.78  15 1.85
  51  0.339  0.668  0.835-  16 1.80  18 1.87
  52  0.667  0.995  0.833-  21 1.82  19 1.83
  53  0.662  0.339  0.833-  24 1.80  22 1.86
  54  0.660  0.667  0.833-  27 1.77  25 1.86
  55  0.005  0.165  0.999-   1 1.94   4 2.05
  56  0.995  0.168  0.665-   6 1.93   3 2.09
  57  0.996  0.500  0.332-   8 1.95   5 2.07
  58  0.994  0.499  0.673-   6 1.93   9 2.07
  59  0.008  0.833  0.997-   1 1.94   7 2.09
  60  0.991  0.833  0.325-   8 1.95   2 2.05
  61  0.337  0.170  0.994-  13 1.90  10 2.10
  62  0.334  0.167  0.332-  14 1.94  11 2.05
  63  0.335  0.168  0.674-  12 1.94  15 2.07
  64  0.328  0.496  0.002-  13 1.90  16 2.11
  65  0.334  0.500  0.330-  14 1.94  17 2.07
  66  0.329  0.835  0.662-  12 1.93  18 2.07
  67  0.661  0.501  0.007-  25 1.94  22 2.08
  68  0.671  0.504  0.334-  26 1.90  23 2.07
  69  0.661  0.502  0.659-  27 1.92  24 2.10
  70  0.658  0.832  0.008-  25 1.93  19 2.09
  71  0.660  0.830  0.334-  26 1.89  20 2.12
  72  0.674  0.831  0.658-  27 1.92  21 2.09
  73  0.166  0.005  0.997-  10 1.94   1 2.07
  74  0.169  0.006  0.668-   3 1.96  12 2.06
  75  0.171  0.328  0.991-  13 1.89   4 2.13
  76  0.168  0.336  0.335-   5 1.97  14 2.02
  77  0.167  0.666  0.003-  16 1.96   7 2.04
  78  0.499  1.000  0.996-  10 1.95  19 2.02
  79  0.502  0.004  0.342-  20 1.92  11 2.10
  80  0.496  0.338  0.010-  13 1.89  22 2.12
  81  0.500  0.328  0.664-  24 1.96  15 2.01
  82  0.501  0.661  0.009-  16 1.95  25 2.05
  83  0.504  0.658  0.335-  26 1.89  17 2.12
  84  0.503  0.677  0.657-  27 1.92  18 2.10
  85  0.830  0.990  0.324-  20 1.92   2 2.10
  86  0.834  0.999  0.669-   3 1.96  21 2.00
  87  0.831  0.342  0.335-   5 1.97  23 2.03
  88  0.835  0.339  0.665-  24 1.95   6 2.07
  89  0.828  0.669  0.325-  26 1.88   8 2.12
  90  0.831  0.661  0.670-  27 1.91   9 2.10
  91  0.003  0.998  0.164-   1 1.93   2 2.07
  92  0.002  0.006  0.833-   1 1.93   3 2.07
  93  1.000  0.339  0.501-   6 1.94   5 2.08
  94  0.999  0.327  0.833-   6 1.93   4 2.06
  95  0.998  0.668  0.167-   7 1.95   8 2.07
  96  0.999  0.666  0.834-   7 1.94   9 2.05
  97  0.332  0.007  0.501-  12 1.94  11 2.06
  98  0.332  0.000  0.833-  12 1.94  10 2.08
  99  0.325  0.330  0.164-  13 1.90  14 2.13
 100  0.342  0.333  0.837-  13 1.90  15 2.09
 101  0.337  0.657  0.166-  17 1.95  16 2.07
 102  0.342  0.664  0.499-  17 1.95  18 2.05
 103  0.658  0.992  0.170-  20 1.92  19 2.10
 104  0.675  0.992  0.497-  20 1.92  21 2.10
 105  0.668  0.342  0.168-  23 1.93  22 2.07
 106  0.668  0.341  0.499-  23 1.94  24 2.09
 107  0.662  0.667  0.170-  26 1.90  25 2.07
 108  0.672  0.667  0.497-  26 1.89  27 2.12
 

IMPORTANT INFORMATION: All symmetrisations will be switched off!
NOSYMM: (Re-)initialisation of all symmetry stuff for point group C_1.


----------------------------------------------------------------------------------------

                                     Primitive cell                                     

  volume of cell :    1560.9203

  direct lattice vectors                    reciprocal lattice vectors
    11.601986689  0.003795896 -0.002022453     0.086192146 -0.000027970  0.000014631
     0.003763589 11.596100006 -0.003008985    -0.000028210  0.086235905  0.000022882
    -0.001970419 -0.003079204 11.602097329     0.000015018  0.000022360  0.086191321

  length of vectors
    11.601987486 11.596101007 11.602097905     0.086192152  0.086235912  0.086191325

  position of ions in fractional coordinates (direct lattice)
     0.987152478  0.998664045  0.999155156
     0.009558127  0.007638131  0.342522820
     0.001938511  0.988077481  0.655446860
     0.988492619  0.340667271  0.009306602
     0.998781023  0.321866300  0.321951519
     0.012885501  0.333377074  0.666915636
     0.991611568  0.653645180  0.000293343
     0.010212096  0.666860766  0.344923573
     0.010614119  0.675783385  0.657942031
     0.331838744  0.989321145  0.012250630
     0.322472957  0.991061931  0.324095507
     0.347016315  0.001002917  0.666862523
     0.332912532  0.332936114  0.000515920
     0.341707316  0.333620574  0.346205424
     0.327927738  0.344952042  0.657672861
     0.334209679  0.677794445  0.989163844
     0.322558262  0.678085291  0.332546745
     0.323646239  0.657118893  0.674734941
     0.672009110  0.010633486  0.990181725
     0.667029933  0.013117510  0.333592704
     0.661862558  0.009602133  0.677537939
     0.676940186  0.323846391  0.991316095
     0.656137963  0.325715823  0.333640884
     0.668246821  0.322412413  0.678058501
     0.676496730  0.667086733  0.992435071
     0.666385945  0.667278421  0.334081108
     0.665999290  0.666959959  0.679853336
     0.993673569  0.167125602  0.334994287
     0.004395183  0.500482637  0.997285365
     0.000904370  0.833508032  0.673091766
     0.341662591  0.499077192  0.668261361
     0.332290813  0.833175255  0.004881798
     0.342900929  0.831754959  0.331112766
     0.661730459  0.166527649  0.005653007
     0.672410897  0.166170447  0.333607841
     0.670288749  0.166991305  0.661583898
     0.166524286  0.996348032  0.333158213
     0.165401515  0.333863416  0.670599687
     0.166684428  0.669201778  0.335347155
     0.167303305  0.662037566  0.663413562
     0.499302903  0.996927763  0.663464601
     0.501250652  0.334661037  0.329738271
     0.834992968  0.996351581  0.003201063
     0.832935332  0.333381125  0.999869087
     0.830769470  0.668709566  0.001411564
     0.997171772  0.995503353  0.500279862
     0.004598714  0.332257628  0.166428138
     0.991074111  0.667047786  0.498422635
     0.336585449  0.007850463  0.165525249
     0.333472647  0.331149470  0.499191984
     0.339082796  0.668057659  0.834714654
     0.667015490  0.994515121  0.833350227
     0.662100206  0.338807744  0.832578218
     0.660129190  0.667233232  0.832616478
     0.005161534  0.165321708  0.998665541
     0.995051796  0.167723416  0.664930760
     0.995932439  0.500223181  0.331530112
     0.993838568  0.499013448  0.673109263
     0.008319938  0.832996494  0.996787947
     0.990813409  0.832571317  0.324837107
     0.337064571  0.169654170  0.994205567
     0.334203021  0.167484892  0.331879330
     0.335226144  0.167547520  0.674228728
     0.328411702  0.496321240  0.001645219
     0.334228802  0.500151294  0.329957537
     0.329328486  0.835267102  0.661696475
     0.660509727  0.501429790  0.007155851
     0.670697732  0.503611246  0.334091119
     0.660749164  0.502487480  0.658790966
     0.657518138  0.831967557  0.008240277
     0.660166649  0.830238376  0.334137404
     0.673848341  0.831127889  0.658309100
     0.165744962  0.004910895  0.997091618
     0.169459845  0.006203560  0.668198499
     0.170520558  0.328122331  0.990862264
     0.167882705  0.336086036  0.334695573
     0.166518218  0.666412736  0.003303969
     0.498525766  0.999830380  0.996185424
     0.502258330  0.003853231  0.342376372
     0.495522071  0.338497489  0.009827216
     0.500457785  0.328368951  0.663528043
     0.500739332  0.661391555  0.008686625
     0.504172445  0.657973425  0.335175859
     0.502646817  0.676609545  0.656543617
     0.830350614  0.990064186  0.324064047
     0.833870344  0.999299757  0.668974845
     0.830672224  0.341774988  0.334666988
     0.834978510  0.338637715  0.665118279
     0.828486876  0.668608436  0.325375098
     0.830564277  0.661187855  0.670012369
     0.003154279  0.998382154  0.164430188
     0.001545813  0.006168200  0.833304938
     0.999825639  0.339455122  0.500538163
     0.998625972  0.327127278  0.832930483
     0.998134141  0.667668814  0.167310117
     0.998592866  0.666392095  0.833683760
     0.331646151  0.007430924  0.500762513
     0.332215799  0.000175503  0.833489884
     0.324650395  0.330217687  0.163730393
     0.342372676  0.333288453  0.837177192
     0.336763169  0.657013088  0.166030588
     0.342001714  0.664444360  0.498793817
     0.657848413  0.992270260  0.169511071
     0.674614610  0.992179268  0.497489706
     0.668276670  0.341629518  0.168302216
     0.667845417  0.341430332  0.499283116
     0.662071704  0.666978545  0.170475779
     0.672075573  0.666933954  0.496885034

  ion indices of the primitive-cell ions
   primitive index   ion index
                 1           1
                 2           2
                 3           3
                 4           4
                 5           5
                 6           6
                 7           7
                 8           8
                 9           9
                10          10
                11          11
                12          12
                13          13
                14          14
                15          15
                16          16
                17          17
                18          18
                19          19
                20          20
                21          21
                22          22
                23          23
                24          24
                25          25
                26          26
                27          27
                28          28
                29          29
                30          30
                31          31
                32          32
                33          33
                34          34
                35          35
                36          36
                37          37
                38          38
                39          39
                40          40
                41          41
                42          42
                43          43
                44          44
                45          45
                46          46
                47          47
                48          48
                49          49
                50          50
                51          51
                52          52
                53          53
                54          54
                55          55
                56          56
                57          57
                58          58
                59          59
                60          60
                61          61
                62          62
                63          63
                64          64
                65          65
                66          66
                67          67
                68          68
                69          69
                70          70
                71          71
                72          72
                73          73
                74          74
                75          75
                76          76
                77          77
                78          78
                79          79
                80          80
                81          81
                82          82
                83          83
                84          84
                85          85
                86          86
                87          87
                88          88
                89          89
                90          90
                91          91
                92          92
                93          93
                94          94
                95          95
                96          96
                97          97
                98          98
                99          99
               100         100
               101         101
               102         102
               103         103
               104         104
               105         105
               106         106
               107         107
               108         108

----------------------------------------------------------------------------------------

 
 
 KPOINTS: Title                                   

Automatic generation of k-mesh.
 Grid dimensions read from file:
 generate k-points for:    3    3    3

 Generating k-lattice:

  Cartesian coordinates                     Fractional coordinates (reciprocal lattice)
     0.028730715 -0.000009323  0.000004877     0.333333333  0.000000000 -0.000000000
    -0.000009403  0.028745302  0.000007627     0.000000000  0.333333333  0.000000000
     0.000005006  0.000007453  0.028730440    -0.000000000  0.000000000  0.333333333

  Length of vectors
     0.028730717  0.028745304  0.028730442

  Shift w.r.t. Gamma in fractional coordinates (k-lattice)
     0.000000000  0.000000000  0.000000000

 
 Subroutine IBZKPT returns following result:
 ===========================================
 
 Found     14 irreducible k-points:
 
 Following reciprocal coordinates:
            Coordinates               Weight
  0.000000  0.000000  0.000000      1.000000
  0.333333 -0.000000 -0.000000      2.000000
  0.000000  0.333333  0.000000      2.000000
  0.333333  0.333333 -0.000000      2.000000
 -0.333333  0.333333 -0.000000      2.000000
 -0.000000 -0.000000  0.333333      2.000000
  0.333333 -0.000000  0.333333      2.000000
 -0.333333 -0.000000  0.333333      2.000000
 -0.000000  0.333333  0.333333      2.000000
  0.333333  0.333333  0.333333      2.000000
 -0.333333  0.333333  0.333333      2.000000
 -0.000000 -0.333333  0.333333      2.000000
  0.333333 -0.333333  0.333333      2.000000
 -0.333333 -0.333333  0.333333      2.000000
 
 Following cartesian coordinates:
            Coordinates               Weight
  0.000000  0.000000  0.000000      1.000000
  0.028731 -0.000009  0.000005      2.000000
 -0.000009  0.028745  0.000008      2.000000
  0.028721  0.028736  0.000013      2.000000
 -0.028740  0.028755  0.000003      2.000000
  0.000005  0.000007  0.028730      2.000000
  0.028736 -0.000002  0.028735      2.000000
 -0.028726  0.000017  0.028726      2.000000
 -0.000004  0.028753  0.028738      2.000000
  0.028726  0.028743  0.028743      2.000000
 -0.028735  0.028762  0.028733      2.000000
  0.000014 -0.028738  0.028723      2.000000
  0.028745 -0.028747  0.028728      2.000000
 -0.028716 -0.028729  0.028718      2.000000
 


--------------------------------------------------------------------------------------------------------




 Dimension of arrays:
   k-points           NKPTS =     14   k-points in BZ     NKDIM =     14   number of bands    NBANDS=    540
   number of dos      NEDOS =   3001   number of ions     NIONS =    108
   non local maximal  LDIM  =      6   non local SUM 2l+1 LMDIM =     18
   total plane-waves  NPLWV = ******
   max r-space proj   IRMAX =   8889   max aug-charges    IRDMAX= 199158
   dimension x,y,z NGX =   100 NGY =  100 NGZ =  100
   dimension x,y,z NGXF=   200 NGYF=  200 NGZF=  200
   support grid    NGXF=   400 NGYF=  400 NGZF=  400
   ions per type =              27  27  54
   NGX,Y,Z   is equivalent  to a cutoff of  14.33, 14.34, 14.33 a.u.
   NGXF,Y,Z  is equivalent  to a cutoff of  28.66, 28.67, 28.66 a.u.

 SYSTEM =  LTO                                     
 POSCAR =  Ti27 O27 F54                            

 Startparameter for this run:
   NWRITE =      2    write-flag & timer
   PREC   = accura    normal or accurate (medium, high low for compatibility)
   ISTART =      0    job   : 0-new  1-cont  2-samecut
   ICHARG =      2    charge: 1-file 2-atom 10-const
   ISPIN  =      2    spin polarized calculation?
   LNONCOLLINEAR =      F non collinear calculations
   LSORBIT =      F    spin-orbit coupling
   INIWAV =      1    electr: 0-lowe 1-rand  2-diag
   LASPH  =      T    aspherical Exc in radial PAW
 Electronic Relaxation 1
   ENCUT  =  700.0 eV  51.45 Ry    7.17 a.u.  25.03 25.02 25.03*2*pi/ulx,y,z
   ENINI  =  700.0     initial cutoff
   ENAUG  =  613.6 eV  augmentation charge cutoff
   NELM   =     60;   NELMIN=  2; NELMDL=  0     # of ELM steps 
   EDIFF  = 0.1E-05   stopping-criterion for ELM
   LREAL  =      T    real-space projection
   NLSPLINE    = F    spline interpolate recip. space projectors
   LCOMPAT=      F    compatible to vasp.4.4
   GGA_COMPAT  = T    GGA compatible to vasp.4.4-vasp.4.6
   LMAXPAW     = -100 max onsite density
   LMAXMIX     =    4 max onsite mixed and CHGCAR
   VOSKOWN=      0    Vosko Wilk Nusair interpolation
   ROPT   =   -0.00010  -0.00010  -0.00010
 Ionic relaxation
   EDIFFG = -.1E-01   stopping-criterion for IOM
   NSW    =    100    number of steps for IOM
   NBLOCK =      1;   KBLOCK =    100    inner block; outer block 
   IBRION =      1    ionic relax: 0-MD 1-quasi-New 2-CG
   NFREE  =      0    steps in history (QN), initial steepest desc. (CG)
   ISIF   =      3    stress and relaxation
   IWAVPR =     11    prediction:  0-non 1-charg 2-wave 3-comb
   ISYM   =      0    0-nonsym 1-usesym 2-fastsym
   LCORR  =      T    Harris-Foulkes like correction to forces

   POTIM  = 0.5000    time-step for ionic-motion
   TEIN   =    0.0    initial temperature
   TEBEG  =    0.0;   TEEND  =   0.0 temperature during run
   SMASS  =  -3.00    Nose mass-parameter (am)
   estimated Nose-frequenzy (Omega)   =  0.10E-29 period in steps = 0.13E+47 mass=  -0.308E-26a.u.
   SCALEE = 1.0000    scale energy and forces
   NPACO  =    256;   APACO  = 10.0  distance and # of slots for P.C.
   PSTRESS=    0.0 pullay stress

  Mass of Ions in am
   POMASS =  47.88 16.00 19.00
  Ionic Valenz
   ZVAL   =  10.00  6.00  7.00
  Atomic Wigner-Seitz radii
   RWIGS  =  -1.00 -1.00 -1.00
  virtual crystal weights 
   VCA    =   1.00  1.00  1.00
   NELECT =     810.0000    total number of electrons
   NUPDOWN=      -1.0000    fix difference up-down

 DOS related values:
   EMIN   =  10.00;   EMAX   =-10.00  energy-range for DOS
   EFERMI =   0.00
   ISMEAR =     0;   SIGMA  =   0.01  broadening in eV -4-tet -1-fermi 0-gaus

 Electronic relaxation 2 (details)
   IALGO  =     38    algorithm
   LDIAG  =      T    sub-space diagonalisation (order eigenvalues)
   LSUBROT=      F    optimize rotation matrix (better conditioning)
   TURBO    =      0    0=normal 1=particle mesh
   IRESTART =      0    0=no restart 2=restart with 2 vectors
   NREBOOT  =      0    no. of reboots
   NMIN     =      0    reboot dimension
   EREF     =   0.00    reference energy to select bands
   IMIX   =      4    mixing-type and parameters
     AMIX     =   0.40;   BMIX     =  1.00
     AMIX_MAG =   1.60;   BMIX_MAG =  1.00
     AMIN     =   0.10
     WC   =   100.;   INIMIX=   1;  MIXPRE=   1;  MAXMIX= -45

 Intra band minimization:
   WEIMIN = 0.0010     energy-eigenvalue tresh-hold
   EBREAK =  0.46E-09  absolut break condition
   DEPER  =   0.30     relativ break condition  

   TIME   =   0.40     timestep for ELM

  volume/ion in A,a.u.               =      14.45        97.53
  Fermi-wavevector in a.u.,A,eV,Ry     =   1.315557  2.486042 23.547462  1.730690
  Thomas-Fermi vector in A             =   2.445731
 
 Write flags
   LWAVE        =      T    write WAVECAR
   LDOWNSAMPLE  =      F    k-point downsampling of WAVECAR
   LCHARG       =      T    write CHGCAR
   LVTOT        =      F    write LOCPOT, total local potential
   LVHAR        =      F    write LOCPOT, Hartree potential only
   LELF         =      F    write electronic localiz. function (ELF)
   LORBIT       =     11    0 simple, 1 ext, 2 COOP (PROOUT), +10 PAW based schemes


 Dipole corrections
   LMONO  =      F    monopole corrections only (constant potential shift)
   LDIPOL =      F    correct potential (dipole corrections)
   IDIPOL =      0    1-x, 2-y, 3-z, 4-all directions 
   EPSILON=  1.0000000 bulk dielectric constant

 LDA+U is selected, type is set to LDAUTYPE =  2
   angular momentum for each species LDAUL =     2   -1   -1
   U (eV)           for each species LDAUU =   4.2  0.0  0.0
   J (eV)           for each species LDAUJ =   0.0  0.0  0.0
 Exchange correlation treatment:
   GGA     =    PS    GGA type
   LEXCH   =    14    internal setting for exchange type
   LIBXC   =     F    Libxc                    
   VOSKOWN =     0    Vosko Wilk Nusair interpolation
   LHFCALC =     F    Hartree Fock is set to
   LHFONE  =     F    Hartree Fock one center treatment
   AEXX    =    0.0000 exact exchange contribution

 Linear response parameters
   LEPSILON=     F    determine dielectric tensor
   LRPA    =     F    only Hartree local field effects (RPA)
   LNABLA  =     F    use nabla operator in PAW spheres
   LVEL    =     F    velocity operator in full k-point grid
   CSHIFT  =0.1000    complex shift for real part using Kramers Kronig
   OMEGAMAX=  -1.0    maximum frequency
   DEG_THRESHOLD= 0.2000000E-02 threshold for treating states as degnerate
   RTIME   =   -0.100 relaxation time in fs
  (WPLASMAI=    0.000 imaginary part of plasma frequency in eV, 0.658/RTIME)
   DFIELD  = 0.0000000 0.0000000 0.0000000 field for delta impulse in time
 
  Optional k-point grid parameters
   LKPOINTS_OPT  =     F    use optional k-point grid
   KPOINTS_OPT_MODE=     1    mode for optional k-point grid
 
 Orbital magnetization related:
   ORBITALMAG=     F  switch on orbital magnetization
   LCHIMAG   =     F  perturbation theory with respect to B field
   DQ        =  0.001000  dq finite difference perturbation B field
   LLRAUG    =     F  two centre corrections for induced B field



--------------------------------------------------------------------------------------------------------


 quasi-Newton-method for relaxation of ions
 charge density and potential will be updated during run
 spin polarized calculation
 Variant of blocked Davidson
 Davidson routine will perform the subspace rotation
 perform sub-space diagonalisation
    after iterative eigenvector-optimisation
 modified Broyden-mixing scheme, WC =      100.0
 initial mixing is a Kerker type mixing with AMIX =  0.4000 and BMIX =      1.0000
 Hartree-type preconditioning will be used
 using additional bands          135
 real space projection scheme for non local part
 use partial core corrections
 calculate Harris-corrections to forces 
   (improved forces if not selfconsistent)
 use gradient corrections 
 use of overlap-Matrix (Vanderbilt PP)
 Gauss-broadening in eV      SIGMA  =   0.01


--------------------------------------------------------------------------------------------------------


  energy-cutoff  :      700.00
  volume of cell :     1560.92
      direct lattice vectors                 reciprocal lattice vectors
    11.601986689  0.003795896 -0.002022453     0.086192146 -0.000027970  0.000014631
     0.003763589 11.596100006 -0.003008985    -0.000028210  0.086235905  0.000022882
    -0.001970419 -0.003079204 11.602097329     0.000015018  0.000022360  0.086191321

  length of vectors
    11.601987486 11.596101007 11.602097905     0.086192152  0.086235912  0.086191325


 
 k-points in units of 2pi/SCALE and weight: Title                                   
   0.00000000  0.00000000  0.00000000       0.037
   0.02873072 -0.00000932  0.00000488       0.074
  -0.00000940  0.02874530  0.00000763       0.074
   0.02872131  0.02873598  0.00001250       0.074
  -0.02874012  0.02875463  0.00000275       0.074
   0.00000501  0.00000745  0.02873044       0.074
   0.02873572 -0.00000187  0.02873532       0.074
  -0.02872571  0.00001678  0.02872556       0.074
  -0.00000440  0.02875275  0.02873807       0.074
   0.02872632  0.02874343  0.02874294       0.074
  -0.02873511  0.02876208  0.02873319       0.074
   0.00001441 -0.02873785  0.02872281       0.074
   0.02874512 -0.02874717  0.02872769       0.074
  -0.02871631 -0.02872852  0.02871794       0.074
 
 k-points in reciprocal lattice and weights: Title                                   
   0.00000000  0.00000000  0.00000000       0.037
   0.33333333 -0.00000000 -0.00000000       0.074
   0.00000000  0.33333333  0.00000000       0.074
   0.33333333  0.33333333 -0.00000000       0.074
  -0.33333333  0.33333333 -0.00000000       0.074
  -0.00000000 -0.00000000  0.33333333       0.074
   0.33333333 -0.00000000  0.33333333       0.074
  -0.33333333 -0.00000000  0.33333333       0.074
  -0.00000000  0.33333333  0.33333333       0.074
   0.33333333  0.33333333  0.33333333       0.074
  -0.33333333  0.33333333  0.33333333       0.074
  -0.00000000 -0.33333333  0.33333333       0.074
   0.33333333 -0.33333333  0.33333333       0.074
  -0.33333333 -0.33333333  0.33333333       0.074
 
 position of ions in fractional coordinates (direct lattice) 
   0.98715248  0.99866404  0.99915516
   0.00955813  0.00763813  0.34252282
   0.00193851  0.98807748  0.65544686
   0.98849262  0.34066727  0.00930660
   0.99878102  0.32186630  0.32195152
   0.01288550  0.33337707  0.66691564
   0.99161157  0.65364518  0.00029334
   0.01021210  0.66686077  0.34492357
   0.01061412  0.67578339  0.65794203
   0.33183874  0.98932114  0.01225063
   0.32247296  0.99106193  0.32409551
   0.34701631  0.00100292  0.66686252
   0.33291253  0.33293611  0.00051592
   0.34170732  0.33362057  0.34620542
   0.32792774  0.34495204  0.65767286
   0.33420968  0.67779445  0.98916384
   0.32255826  0.67808529  0.33254674
   0.32364624  0.65711889  0.67473494
   0.67200911  0.01063349  0.99018173
   0.66702993  0.01311751  0.33359270
   0.66186256  0.00960213  0.67753794
   0.67694019  0.32384639  0.99131610
   0.65613796  0.32571582  0.33364088
   0.66824682  0.32241241  0.67805850
   0.67649673  0.66708673  0.99243507
   0.66638595  0.66727842  0.33408111
   0.66599929  0.66695996  0.67985334
   0.99367357  0.16712560  0.33499429
   0.00439518  0.50048264  0.99728536
   0.00090437  0.83350803  0.67309177
   0.34166259  0.49907719  0.66826136
   0.33229081  0.83317526  0.00488180
   0.34290093  0.83175496  0.33111277
   0.66173046  0.16652765  0.00565301
   0.67241090  0.16617045  0.33360784
   0.67028875  0.16699131  0.66158390
   0.16652429  0.99634803  0.33315821
   0.16540151  0.33386342  0.67059969
   0.16668443  0.66920178  0.33534716
   0.16730330  0.66203757  0.66341356
   0.49930290  0.99692776  0.66346460
   0.50125065  0.33466104  0.32973827
   0.83499297  0.99635158  0.00320106
   0.83293533  0.33338112  0.99986909
   0.83076947  0.66870957  0.00141156
   0.99717177  0.99550335  0.50027986
   0.00459871  0.33225763  0.16642814
   0.99107411  0.66704779  0.49842264
   0.33658545  0.00785046  0.16552525
   0.33347265  0.33114947  0.49919198
   0.33908280  0.66805766  0.83471465
   0.66701549  0.99451512  0.83335023
   0.66210021  0.33880774  0.83257822
   0.66012919  0.66723323  0.83261648
   0.00516153  0.16532171  0.99866554
   0.99505180  0.16772342  0.66493076
   0.99593244  0.50022318  0.33153011
   0.99383857  0.49901345  0.67310926
   0.00831994  0.83299649  0.99678795
   0.99081341  0.83257132  0.32483711
   0.33706457  0.16965417  0.99420557
   0.33420302  0.16748489  0.33187933
   0.33522614  0.16754752  0.67422873
   0.32841170  0.49632124  0.00164522
   0.33422880  0.50015129  0.32995754
   0.32932849  0.83526710  0.66169647
   0.66050973  0.50142979  0.00715585
   0.67069773  0.50361125  0.33409112
   0.66074916  0.50248748  0.65879097
   0.65751814  0.83196756  0.00824028
   0.66016665  0.83023838  0.33413740
   0.67384834  0.83112789  0.65830910
   0.16574496  0.00491090  0.99709162
   0.16945984  0.00620356  0.66819850
   0.17052056  0.32812233  0.99086226
   0.16788271  0.33608604  0.33469557
   0.16651822  0.66641274  0.00330397
   0.49852577  0.99983038  0.99618542
   0.50225833  0.00385323  0.34237637
   0.49552207  0.33849749  0.00982722
   0.50045778  0.32836895  0.66352804
   0.50073933  0.66139156  0.00868662
   0.50417244  0.65797343  0.33517586
   0.50264682  0.67660955  0.65654362
   0.83035061  0.99006419  0.32406405
   0.83387034  0.99929976  0.66897484
   0.83067222  0.34177499  0.33466699
   0.83497851  0.33863771  0.66511828
   0.82848688  0.66860844  0.32537510
   0.83056428  0.66118785  0.67001237
   0.00315428  0.99838215  0.16443019
   0.00154581  0.00616820  0.83330494
   0.99982564  0.33945512  0.50053816
   0.99862597  0.32712728  0.83293048
   0.99813414  0.66766881  0.16731012
   0.99859287  0.66639209  0.83368376
   0.33164615  0.00743092  0.50076251
   0.33221580  0.00017550  0.83348988
   0.32465039  0.33021769  0.16373039
   0.34237268  0.33328845  0.83717719
   0.33676317  0.65701309  0.16603059
   0.34200171  0.66444436  0.49879382
   0.65784841  0.99227026  0.16951107
   0.67461461  0.99217927  0.49748971
   0.66827667  0.34162952  0.16830222
   0.66784542  0.34143033  0.49928312
   0.66207170  0.66697855  0.17047578
   0.67207557  0.66693395  0.49688503
 
 position of ions in cartesian coordinates  (Angst):
  11.45471972 11.58127866 11.58729394
   0.11024710  0.08755412  3.97394078
   0.02491779 11.45583439  7.60158123
  11.46974201  3.95413530  0.10495186
  11.58842113  3.73519372  3.73232438
   0.14943800  3.86386923  7.73659094
  11.50712369  7.58349803 -0.00056890
   0.12031075  7.73196081  3.99980964
   0.12439182  7.83446607  7.63145260
   3.85368795 11.47348884  0.13848502
   3.74441830 11.49267938  3.75655334
   4.02476844  0.01089376  7.73629906
   3.86369879  3.86202259  0.00431065
   3.96505717  3.86892859  4.01501408
   3.80461562  3.99931805  7.62868337
   3.87809812  7.85799496 11.47365979
   3.74421344  7.86334526  3.85554699
   3.75608297  7.61916728  7.82570864
   7.79472969  0.12280887 11.48679365
   7.73826446  0.15361674  3.86898651
   7.67762169  0.11177337  7.85949364
   7.85311655  3.75487226 11.49900229
   7.61307236  3.77849653  3.86862693
   7.75286809  3.73917530  7.86457909
   7.84926118  7.73511646 11.51095285
   7.73325395  7.73932813  3.87268596
   7.72808546  7.73456904  7.88437075
  11.52855644  1.94074557  3.88412379
   0.05091139  5.80059255 11.56908703
   0.01230320  9.66337335  7.80676633
   3.96452640  5.78658823  7.75104064
   3.85835970  9.66282989  0.05346004
   3.98080997  9.64539573  3.83840630
   7.67800358  1.93356572  0.06374734
   7.80127033  1.92845428  3.86869071
   7.77600604  1.93695507  7.67390268
   1.93510593 11.55335767  3.86199923
   1.91892133  3.87007649  7.77902373
   1.93572834  7.75973086  3.88837961
   1.94223515  7.67564610  7.69465829
   5.79535036 11.56032639  7.69357132
   5.81611319  3.88165022  3.82363477
   9.69132085 11.55695226  0.03245231
   9.66298918  3.86600380 11.59789075
   9.64109030  7.75757218  0.01268477
  11.57193453 11.54620113  5.79928346
   0.05427677  3.85239767  1.92990640
  11.49995704  7.73738010  5.77873639
   3.90476330  0.09180271  1.91973570
   3.86920790  3.83977109  5.79000313
   3.93490364  7.74558028  9.68174470
   7.74080573 11.53246267  9.66426895
   7.68131238  3.92879807  9.65729498
   7.65968067  7.73724527  9.65675465
   0.05853846  1.91403156 11.58610691
  11.54389874  1.94666715  7.71207427
  11.55602428  5.80339764  3.84292524
  11.53105361  5.78830972  7.80596766
   0.09769878  9.65647292 11.56230748
  11.49789738  9.65734104  3.76428266
   3.90929818  1.96554482 11.53367757
   3.87739540  1.94241823  3.84931642
   3.88859132  1.94209419  7.82128519
   3.81209290  5.75663228  0.01693037
   3.87895032  5.80005711  3.82601855
   3.82270450  9.68505344  7.67388754
   7.66509813  5.81711518  0.08017824
   7.78266324  5.84144353  3.87328586
   7.66659607  5.82737466  7.64050859
   7.63163163  9.65004949  0.09177132
   7.66171096  9.62900429  3.87286135
   7.81981036  9.63837290  7.63390257
   1.92102463  0.05450614 11.56800400
   1.96477758  0.07052283  7.75214262
   1.97765975  3.80253558 11.49474824
   1.94837831  3.89689395  3.88181980
   1.93444374  7.72841064  0.03599096
   5.78568935 11.59295797 11.55382352
   5.82653434  0.04553473  3.97125660
   5.75029507  3.92710143  0.11199562
   5.80623298  3.80765574  7.69631673
   5.81204315  7.67143662  0.09778023
   5.85121789  7.63080735  3.88574344
   5.83295449  7.84591831  7.61423046
   9.63680442 11.48303737  3.75516418
   9.67699543 11.58908529  7.75681792
   9.63807496  3.96537958  3.88013058
   9.68737349  3.92799826  7.71405934
   9.61396895  7.75539324  3.77134615
   9.63736392  7.66829012  7.76987943
   0.04002941 11.57684496  1.90472455
   0.01631576  0.06896702  9.66806331
  11.60025506  3.93860952  5.80424897
  11.58563519  3.79462655  9.66073654
  11.58252217  7.74562796  1.93712057
  11.58652646  7.72877285  9.66845536
   3.84679549  0.08588668  5.80920231
   3.85272161  0.00072972  9.66955833
   3.76750975  3.82996550  1.89796575
   3.97180800  3.86356801  9.71131598
   3.90926738  7.61955654  1.92364501
   3.96941719  7.70472556  5.78436343
   7.63574902 11.50844033  1.96236775
   7.82962362 11.50643891  5.76757416
   7.75429116  3.96358853  1.95027917
   7.74863485  3.96025795  5.79035326
   7.68352143  7.73633814  1.97453065
   7.79894285  7.73485394  5.76154249
 


--------------------------------------------------------------------------------------------------------


 k-point   1 :   0.0000 0.0000 0.0000  plane waves:   65577
 k-point   2 :   0.3333-0.0000-0.0000  plane waves:   65611
 k-point   3 :   0.0000 0.3333 0.0000  plane waves:   65602
 k-point   4 :   0.3333 0.3333-0.0000  plane waves:   65629
 k-point   5 :  -0.3333 0.3333-0.0000  plane waves:   65625
 k-point   6 :  -0.0000-0.0000 0.3333  plane waves:   65610
 k-point   7 :   0.3333-0.0000 0.3333  plane waves:   65629
 k-point   8 :  -0.3333-0.0000 0.3333  plane waves:   65622
 k-point   9 :  -0.0000 0.3333 0.3333  plane waves:   65624
 k-point  10 :   0.3333 0.3333 0.3333  plane waves:   65651
 k-point  11 :  -0.3333 0.3333 0.3333  plane waves:   65657
 k-point  12 :  -0.0000-0.3333 0.3333  plane waves:   65629
 k-point  13 :   0.3333-0.3333 0.3333  plane waves:   65655
 k-point  14 :  -0.3333-0.3333 0.3333  plane waves:   65647

 maximum and minimum number of plane-waves per node :      8240     8149

 maximum number of plane-waves:     65657
 maximum index in each direction: 
   IXMAX=   25   IYMAX=   25   IZMAX=   25
   IXMIN=  -25   IYMIN=  -25   IZMIN=  -25


 real space projection operators:
  total allocation   :      53916.36 KBytes
  max/ min on nodes  :       7351.47       6132.11


 parallel 3D FFT for wavefunctions:
    minimum data exchange during FFTs selected (reduces bandwidth)
 parallel 3D FFT for charge:
    minimum data exchange during FFTs selected (reduces bandwidth)


 total amount of memory used by VASP MPI-rank0   298564. kBytes
=======================================================================

   base      :      30000. kBytes
   nonlr-proj:      25198. kBytes
   fftplans  :      18873. kBytes
   grid      :      21088. kBytes
   one-center:        435. kBytes
   wavefun   :     202970. kBytes
 
     INWAV:  cpu time      0.0001: real time      0.0002
 Broyden mixing: mesh for mixing (old mesh)
   NGX = 51   NGY = 51   NGZ = 51
  (NGX  =200   NGY  =200   NGZ  =200)
  gives a total of 132651 points

 initial charge density was supplied:
 charge density of overlapping atoms calculated
 number of electron     810.0000000 magnetization     108.0000000
 keeping initial charge density in first step


--------------------------------------------------------------------------------------------------------


 Maximum index for non-local projection operator         1366
 Maximum index for augmentation-charges         4039 (set IRDMAX)


--------------------------------------------------------------------------------------------------------


 First call to EWALD:  gamma=   0.153
 Maximum number of real-space cells 3x 3x 3
 Maximum number of reciprocal cells 3x 3x 3

    FEWALD:  cpu time      0.0037: real time      0.0037


--------------------------------------- Iteration      1(   1)  ---------------------------------------


    POTLOK:  cpu time      0.1786: real time      0.1824
    SETDIJ:  cpu time      0.9160: real time      0.9192
     EDDAV:  cpu time     90.3297: real time     90.5923
       DOS:  cpu time      0.0168: real time      0.0169
    --------------------------------------------
      LOOP:  cpu time     91.4411: real time     91.7108

 eigenvalue-minimisations  : 30240
 total energy-change (2. order) : 0.1318377E+05  (-0.4641328E+05)
 number of electron     810.0000000 magnetization     108.0000000
 augmentation part      810.0000000 magnetization     108.0000000

 Free energy of the ion-electron system (eV)
  ---------------------------------------------------
  alpha Z        PSCENC =      2555.29430845
  Ewald energy   TEWEN  =    -43209.42342462
  -Hartree energ DENC   =    -27781.18268984
  -exchange      EXHF   =         0.00000000
  -V(xc)+E(xc)   XCENC  =      3762.25927263
  PAW double counting   =     55010.87535266   -55252.78449702
  entropy T*S    EENTRO =        -0.00239095
  eigenvalues    EBANDS =      2828.29043648
  atomic energy  EATOM  =     75270.44210491
  Solvation  Ediel_sol  =         0.00000000
  ---------------------------------------------------
  free energy    TOTEN  =     13183.76847269 eV

  energy without entropy =    13183.77086364  energy(sigma->0) =    13183.76966816


--------------------------------------------------------------------------------------------------------




--------------------------------------- Iteration      1(   2)  ---------------------------------------


     EDDAV:  cpu time     90.1472: real time     90.3761
       DOS:  cpu time      0.0106: real time      0.0107
    --------------------------------------------
      LOOP:  cpu time     90.1579: real time     90.3867

 eigenvalue-minimisations  : 30300
 total energy-change (2. order) :-0.1154035E+05  (-0.1080165E+05)
 number of electron     810.0000000 magnetization     108.0000000
 augmentation part      810.0000000 magnetization     108.0000000

 Free energy of the ion-electron system (eV)
  ---------------------------------------------------
  alpha Z        PSCENC =      2555.29430845
  Ewald energy   TEWEN  =    -43209.42342462
  -Hartree energ DENC   =    -27781.18268984
  -exchange      EXHF   =         0.00000000
  -V(xc)+E(xc)   XCENC  =      3762.25927263
  PAW double counting   =     55010.87535266   -55252.78449702
  entropy T*S    EENTRO =        -0.00144447
  eigenvalues    EBANDS =     -8712.05866922
  atomic energy  EATOM  =     75270.44210491
  Solvation  Ediel_sol  =         0.00000000
  ---------------------------------------------------
  free energy    TOTEN  =      1643.42031346 eV

  energy without entropy =     1643.42175794  energy(sigma->0) =     1643.42103570


--------------------------------------------------------------------------------------------------------




--------------------------------------- Iteration      1(   3)  ---------------------------------------


     EDDAV:  cpu time     95.7198: real time     96.0503
       DOS:  cpu time      0.0086: real time      0.0086
    --------------------------------------------
      LOOP:  cpu time     95.7284: real time     96.0589

 eigenvalue-minimisations  : 32420
 total energy-change (2. order) :-0.2413973E+04  (-0.2267295E+04)
 number of electron     810.0000000 magnetization     108.0000000
 augmentation part      810.0000000 magnetization     108.0000000

 Free energy of the ion-electron system (eV)
  ---------------------------------------------------
  alpha Z        PSCENC =      2555.29430845
  Ewald energy   TEWEN  =    -43209.42342462
  -Hartree energ DENC   =    -27781.18268984
  -exchange      EXHF   =         0.00000000
  -V(xc)+E(xc)   XCENC  =      3762.25927263
  PAW double counting   =     55010.87535266   -55252.78449702
  entropy T*S    EENTRO =        -0.00000000
  eigenvalues    EBANDS =    -11126.03274099
  atomic energy  EATOM  =     75270.44210491
  Solvation  Ediel_sol  =         0.00000000
  ---------------------------------------------------
  free energy    TOTEN  =      -770.55231383 eV

  energy without entropy =     -770.55231383  energy(sigma->0) =     -770.55231383


--------------------------------------------------------------------------------------------------------




--------------------------------------- Iteration      1(   4)  ---------------------------------------


     EDDAV:  cpu time    106.8159: real time    107.1212
       DOS:  cpu time      0.0097: real time      0.0097
    --------------------------------------------
      LOOP:  cpu time    106.8256: real time    107.1310

 eigenvalue-minimisations  : 37370
 total energy-change (2. order) :-0.1527846E+03  (-0.1511183E+03)
 number of electron     810.0000000 magnetization     108.0000000
 augmentation part      810.0000000 magnetization     108.0000000

 Free energy of the ion-electron system (eV)
  ---------------------------------------------------
  alpha Z        PSCENC =      2555.29430845
  Ewald energy   TEWEN  =    -43209.42342462
  -Hartree energ DENC   =    -27781.18268984
  -exchange      EXHF   =         0.00000000
  -V(xc)+E(xc)   XCENC  =      3762.25927263
  PAW double counting   =     55010.87535266   -55252.78449702
  entropy T*S    EENTRO =        -0.00000000
  eigenvalues    EBANDS =    -11278.81733648
  atomic energy  EATOM  =     75270.44210491
  Solvation  Ediel_sol  =         0.00000000
  ---------------------------------------------------
  free energy    TOTEN  =      -923.33690932 eV

  energy without entropy =     -923.33690932  energy(sigma->0) =     -923.33690932


--------------------------------------------------------------------------------------------------------




--------------------------------------- Iteration      1(   5)  ---------------------------------------


     EDDAV:  cpu time    109.4597: real time    109.7458
       DOS:  cpu time      0.0071: real time      0.0071
    CHARGE:  cpu time      4.0010: real time      4.0110
    MIXING:  cpu time      0.0048: real time      0.0051
    --------------------------------------------
      LOOP:  cpu time    113.4726: real time    113.7690

 eigenvalue-minimisations  : 38400
 total energy-change (2. order) :-0.4900149E+01  (-0.4879637E+01)
 number of electron     810.0000011 magnetization      68.8134497
 augmentation part      205.6186844 magnetization      70.5579602

 Broyden mixing:
  rms(total) = 0.10947E+02    rms(broyden)= 0.10947E+02
  rms(prec ) = 0.13039E+02
  weight for this iteration     100.00

 Free energy of the ion-electron system (eV)
  ---------------------------------------------------
  alpha Z        PSCENC =      2555.29430845
  Ewald energy   TEWEN  =    -43209.42342462
  -Hartree energ DENC   =    -27781.18268984
  -exchange      EXHF   =         0.00000000
  -V(xc)+E(xc)   XCENC  =      3762.25927263
  PAW double counting   =     55010.87535266   -55252.78449702
  entropy T*S    EENTRO =        -0.00000000
  eigenvalues    EBANDS =    -11283.71748506
  atomic energy  EATOM  =     75270.44210491
  Solvation  Ediel_sol  =         0.00000000
  ---------------------------------------------------
  free energy    TOTEN  =      -928.23705790 eV

  energy without entropy =     -928.23705790  energy(sigma->0) =     -928.23705790


--------------------------------------------------------------------------------------------------------




--------------------------------------- Iteration      1(   6)  ---------------------------------------


    POTLOK:  cpu time      0.1897: real time      0.3080
    SETDIJ:  cpu time      0.8856: real time      0.8879
     EDDAV:  cpu time    113.9507: real time    114.2403
       DOS:  cpu time      0.0051: real time      0.0051
    CHARGE:  cpu time      3.9080: real time      3.9179
    MIXING:  cpu time      0.0047: real time      0.0050
    --------------------------------------------
      LOOP:  cpu time    118.9438: real time    119.3643

 eigenvalue-minimisations  : 40390
 total energy-change (2. order) : 0.4228406E+03  (-0.1151072E+03)
 number of electron     810.0000011 magnetization      47.1289464
 augmentation part      211.7300037 magnetization      41.7188721

 Broyden mixing:
  rms(total) = 0.32844E+01    rms(broyden)= 0.32838E+01
  rms(prec ) = 0.35864E+01
  weight for this iteration     100.00

 eigenvalues of (default mixing * dielectric matrix)
  average eigenvalue GAMMA=   0.8699
  0.8699

 Free energy of the ion-electron system (eV)
  ---------------------------------------------------
  alpha Z        PSCENC =      2555.29430845
  Ewald energy   TEWEN  =    -43209.42342462
  -Hartree energ DENC   =    -28189.22141236
  -exchange      EXHF   =         0.00000000
  -V(xc)+E(xc)   XCENC  =      3909.58342331
  PAW double counting   =     57656.75331946   -58029.72026379
  entropy T*S    EENTRO =        -0.00000000
  eigenvalues    EBANDS =    -10469.10454408
  atomic energy  EATOM  =     75270.44210491
  Solvation  Ediel_sol  =         0.00000000
  ---------------------------------------------------
  free energy    TOTEN  =      -505.39648871 eV

  energy without entropy =     -505.39648871  energy(sigma->0) =     -505.39648871


--------------------------------------------------------------------------------------------------------




--------------------------------------- Iteration      1(   7)  ---------------------------------------


    POTLOK:  cpu time      0.1523: real time      0.2301
    SETDIJ:  cpu time      0.8903: real time      0.8930
     EDDAV:  cpu time    108.7135: real time    108.9886
       DOS:  cpu time      0.0138: real time      0.0139
    CHARGE:  cpu time      3.9853: real time      3.9954
    MIXING:  cpu time      0.0057: real time      0.0058
    --------------------------------------------
      LOOP:  cpu time    113.7610: real time    114.1267

 eigenvalue-minimisations  : 38360
 total energy-change (2. order) :-0.9504460E+02  (-0.1925887E+02)
 number of electron     810.0000011 magnetization      27.1012438
 augmentation part      207.5463536 magnetization      23.1723539

 Broyden mixing:
  rms(total) = 0.19153E+01    rms(broyden)= 0.19153E+01
  rms(prec ) = 0.21315E+01
  weight for this iteration     100.00

 eigenvalues of (default mixing * dielectric matrix)
  average eigenvalue GAMMA=   0.9683
  1.0804  0.8563

 Free energy of the ion-electron system (eV)
  ---------------------------------------------------
  alpha Z        PSCENC =      2555.29430845
  Ewald energy   TEWEN  =    -43209.42342462
  -Hartree energ DENC   =    -28214.10867379
  -exchange      EXHF   =         0.00000000
  -V(xc)+E(xc)   XCENC  =      3860.07262985
  PAW double counting   =     59242.46131596   -59627.67945125
  entropy T*S    EENTRO =        -0.00000000
  eigenvalues    EBANDS =    -10477.49989981
  atomic energy  EATOM  =     75270.44210491
  Solvation  Ediel_sol  =         0.00000000
  ---------------------------------------------------
  free energy    TOTEN  =      -600.44109030 eV

  energy without entropy =     -600.44109030  energy(sigma->0) =     -600.44109030


--------------------------------------------------------------------------------------------------------




--------------------------------------- Iteration      1(   8)  ---------------------------------------


    POTLOK:  cpu time      0.1862: real time      0.2378
    SETDIJ:  cpu time      0.8867: real time      0.8888
     EDDAV:  cpu time    102.1509: real time    102.4104
       DOS:  cpu time      0.0117: real time      0.0117
    CHARGE:  cpu time      3.8717: real time      3.8812
    MIXING:  cpu time      0.0054: real time      0.0054
    --------------------------------------------
      LOOP:  cpu time    107.1124: real time    107.4352

 eigenvalue-minimisations  : 35460
 total energy-change (2. order) :-0.5424909E+02  (-0.4141713E+01)
 number of electron     810.0000011 magnetization       9.7918441
 augmentation part      209.5641466 magnetization       6.9883713

 Broyden mixing:
  rms(total) = 0.12414E+01    rms(broyden)= 0.12414E+01
  rms(prec ) = 0.13319E+01
  weight for this iteration     100.00

 eigenvalues of (default mixing * dielectric matrix)
  average eigenvalue GAMMA=   1.1666
  1.4077  1.4077  0.6842

 Free energy of the ion-electron system (eV)
  ---------------------------------------------------
  alpha Z        PSCENC =      2555.29430845
  Ewald energy   TEWEN  =    -43209.42342462
  -Hartree energ DENC   =    -28062.65100978
  -exchange      EXHF   =         0.00000000
  -V(xc)+E(xc)   XCENC  =      3824.50705342
  PAW double counting   =     60241.39882653   -60644.51541919
  entropy T*S    EENTRO =        -0.00000000
  eigenvalues    EBANDS =    -10629.74262494
  atomic energy  EATOM  =     75270.44210491
  Solvation  Ediel_sol  =         0.00000000
  ---------------------------------------------------
  free energy    TOTEN  =      -654.69018522 eV

  energy without entropy =     -654.69018522  energy(sigma->0) =     -654.69018522


--------------------------------------------------------------------------------------------------------




--------------------------------------- Iteration      1(   9)  ---------------------------------------


    POTLOK:  cpu time      0.1927: real time      0.2977
    SETDIJ:  cpu time      0.8933: real time      0.8956
     EDDAV:  cpu time    101.2973: real time    101.5559
       DOS:  cpu time      0.0072: real time      0.0072
    CHARGE:  cpu time      3.9665: real time      3.9766
    MIXING:  cpu time      0.0053: real time      0.0053
    --------------------------------------------
      LOOP:  cpu time    106.3624: real time    106.7384

 eigenvalue-minimisations  : 35240
 total energy-change (2. order) :-0.5512508E+02  (-0.7987827E+01)
 number of electron     810.0000011 magnetization       4.5568862
 augmentation part      208.7248551 magnetization       3.5897789

 Broyden mixing:
  rms(total) = 0.47294E+00    rms(broyden)= 0.47284E+00
  rms(prec ) = 0.56807E+00
  weight for this iteration     100.00

 eigenvalues of (default mixing * dielectric matrix)
  average eigenvalue GAMMA=   1.1655
  1.8765  1.4274  0.7601  0.5982

 Free energy of the ion-electron system (eV)
  ---------------------------------------------------
  alpha Z        PSCENC =      2555.29430845
  Ewald energy   TEWEN  =    -43209.42342462
  -Hartree energ DENC   =    -27917.30571218
  -exchange      EXHF   =         0.00000000
  -V(xc)+E(xc)   XCENC  =      3788.48753241
  PAW double counting   =     60939.19009464   -61348.68973139
  entropy T*S    EENTRO =        -0.00000000
  eigenvalues    EBANDS =    -10787.81043414
  atomic energy  EATOM  =     75270.44210491
  Solvation  Ediel_sol  =         0.00000000
  ---------------------------------------------------
  free energy    TOTEN  =      -709.81526193 eV

  energy without entropy =     -709.81526193  energy(sigma->0) =     -709.81526193


--------------------------------------------------------------------------------------------------------




--------------------------------------- Iteration      1(  10)  ---------------------------------------


    POTLOK:  cpu time      0.1622: real time      0.3316
    SETDIJ:  cpu time      0.9080: real time      0.9103
     EDDAV:  cpu time    106.7733: real time    107.0432
       DOS:  cpu time      0.0079: real time      0.0079
    CHARGE:  cpu time      3.8924: real time      3.9096
    MIXING:  cpu time      0.0062: real time      0.0062
    --------------------------------------------
      LOOP:  cpu time    111.7499: real time    112.2088

 eigenvalue-minimisations  : 37340
 total energy-change (2. order) :-0.8764996E+01  (-0.1384930E+01)
 number of electron     810.0000011 magnetization       2.0713564
 augmentation part      209.1235309 magnetization       1.7433098

 Broyden mixing:
  rms(total) = 0.19684E+00    rms(broyden)= 0.19679E+00
  rms(prec ) = 0.22272E+00
  weight for this iteration     100.00

 eigenvalues of (default mixing * dielectric matrix)
  average eigenvalue GAMMA=   1.2182
  2.1716  1.6101  0.9493  0.7668  0.5930

 Free energy of the ion-electron system (eV)
  ---------------------------------------------------
  alpha Z        PSCENC =      2555.29430845
  Ewald energy   TEWEN  =    -43209.42342462
  -Hartree energ DENC   =    -27876.35205409
  -exchange      EXHF   =         0.00000000
  -V(xc)+E(xc)   XCENC  =      3783.53970399
  PAW double counting   =     61040.31530495   -61454.57342933
  entropy T*S    EENTRO =        -0.00000000
  eigenvalues    EBANDS =    -10827.82277195
  atomic energy  EATOM  =     75270.44210491
  Solvation  Ediel_sol  =         0.00000000
  ---------------------------------------------------
  free energy    TOTEN  =      -718.58025769 eV

  energy without entropy =     -718.58025769  energy(sigma->0) =     -718.58025769


--------------------------------------------------------------------------------------------------------




--------------------------------------- Iteration      1(  11)  ---------------------------------------


    POTLOK:  cpu time      0.1592: real time      0.1994
    SETDIJ:  cpu time      0.8873: real time      0.8896
     EDDAV:  cpu time    103.0514: real time    103.3315
       DOS:  cpu time      0.0125: real time      0.0126
    CHARGE:  cpu time      4.0961: real time      4.1064
    MIXING:  cpu time      0.0063: real time      0.0063
    --------------------------------------------
      LOOP:  cpu time    108.2129: real time    108.5459

 eigenvalue-minimisations  : 35820
 total energy-change (2. order) :-0.2112308E+01  (-0.3551830E+00)
 number of electron     810.0000011 magnetization       0.5016906
 augmentation part      209.0774800 magnetization       0.3820592

 Broyden mixing:
  rms(total) = 0.98848E-01    rms(broyden)= 0.98826E-01
  rms(prec ) = 0.12154E+00
  weight for this iteration     100.00

 eigenvalues of (default mixing * dielectric matrix)
  average eigenvalue GAMMA=   1.2476
  2.5600  1.4002  1.4002  0.7969  0.7290  0.5992

 Free energy of the ion-electron system (eV)
  ---------------------------------------------------
  alpha Z        PSCENC =      2555.29430845
  Ewald energy   TEWEN  =    -43209.42342462
  -Hartree energ DENC   =    -27840.35255943
  -exchange      EXHF   =         0.00000000
  -V(xc)+E(xc)   XCENC  =      3781.21380266
  PAW double counting   =     60975.72786202   -61391.28493803
  entropy T*S    EENTRO =        -0.00000000
  eigenvalues    EBANDS =    -10862.30972191
  atomic energy  EATOM  =     75270.44210491
  Solvation  Ediel_sol  =         0.00000000
  ---------------------------------------------------
  free energy    TOTEN  =      -720.69256594 eV

  energy without entropy =     -720.69256594  energy(sigma->0) =     -720.69256594


--------------------------------------------------------------------------------------------------------




--------------------------------------- Iteration      1(  12)  ---------------------------------------


    POTLOK:  cpu time      0.1651: real time      0.1733
    SETDIJ:  cpu time      0.9057: real time      0.9079
     EDDAV:  cpu time     98.8449: real time     99.0954
       DOS:  cpu time      0.0066: real time      0.0066
    CHARGE:  cpu time      4.0887: real time      4.0989
    MIXING:  cpu time      0.0063: real time      0.0063
    --------------------------------------------
      LOOP:  cpu time    104.0172: real time    104.2883

 eigenvalue-minimisations  : 34140
 total energy-change (2. order) :-0.2605016E-01  (-0.2541419E-01)
 number of electron     810.0000011 magnetization       0.2737597
 augmentation part      209.1585960 magnetization       0.2326237

 Broyden mixing:
  rms(total) = 0.46521E-01    rms(broyden)= 0.46516E-01
  rms(prec ) = 0.57402E-01
  weight for this iteration     100.00

 eigenvalues of (default mixing * dielectric matrix)
  average eigenvalue GAMMA=   1.2186
  2.5456  1.5285  1.5285  0.8130  0.8130  0.7326  0.5692

 Free energy of the ion-electron system (eV)
  ---------------------------------------------------
  alpha Z        PSCENC =      2555.29430845
  Ewald energy   TEWEN  =    -43209.42342462
  -Hartree energ DENC   =    -27809.50793392
  -exchange      EXHF   =         0.00000000
  -V(xc)+E(xc)   XCENC  =      3780.03828283
  PAW double counting   =     60899.23217795   -61315.33772910
  entropy T*S    EENTRO =        -0.00000000
  eigenvalues    EBANDS =    -10891.45640260
  atomic energy  EATOM  =     75270.44210491
  Solvation  Ediel_sol  =         0.00000000
  ---------------------------------------------------
  free energy    TOTEN  =      -720.71861611 eV

  energy without entropy =     -720.71861611  energy(sigma->0) =     -720.71861611


--------------------------------------------------------------------------------------------------------




--------------------------------------- Iteration      1(  13)  ---------------------------------------


    POTLOK:  cpu time      0.1741: real time      0.2298
    SETDIJ:  cpu time      0.9056: real time      0.9079
     EDDAV:  cpu time     98.0459: real time     98.2927
       DOS:  cpu time      0.0035: real time      0.0035
    CHARGE:  cpu time      3.9694: real time      3.9794
    MIXING:  cpu time      0.0060: real time      0.0060
    --------------------------------------------
      LOOP:  cpu time    103.1045: real time    103.4192

 eigenvalue-minimisations  : 33630
 total energy-change (2. order) : 0.1415643E-02  (-0.5633379E-02)
 number of electron     810.0000011 magnetization       0.0266727
 augmentation part      209.1378419 magnetization       0.0069296

 Broyden mixing:
  rms(total) = 0.24566E-01    rms(broyden)= 0.24565E-01
  rms(prec ) = 0.29902E-01
  weight for this iteration     100.00

 eigenvalues of (default mixing * dielectric matrix)
  average eigenvalue GAMMA=   1.2731
  2.6074  2.4429  1.1017  1.1017  0.8533  0.8533  0.5757  0.6489

 Free energy of the ion-electron system (eV)
  ---------------------------------------------------
  alpha Z        PSCENC =      2555.29430845
  Ewald energy   TEWEN  =    -43209.42342462
  -Hartree energ DENC   =    -27801.48641348
  -exchange      EXHF   =         0.00000000
  -V(xc)+E(xc)   XCENC  =      3779.76230168
  PAW double counting   =     60871.77054762   -61287.53155555
  entropy T*S    EENTRO =        -0.00000000
  eigenvalues    EBANDS =    -10899.54506947
  atomic energy  EATOM  =     75270.44210491
  Solvation  Ediel_sol  =         0.00000000
  ---------------------------------------------------
  free energy    TOTEN  =      -720.71720046 eV

  energy without entropy =     -720.71720046  energy(sigma->0) =     -720.71720046


--------------------------------------------------------------------------------------------------------




--------------------------------------- Iteration      1(  14)  ---------------------------------------


    POTLOK:  cpu time      0.1956: real time      0.2190
    SETDIJ:  cpu time      0.8902: real time      0.8925
     EDDAV:  cpu time     97.3851: real time     97.6310
       DOS:  cpu time      0.0156: real time      0.0157
    CHARGE:  cpu time      3.9545: real time      3.9643
    MIXING:  cpu time      0.0054: real time      0.0054
    --------------------------------------------
      LOOP:  cpu time    102.4465: real time    102.7278

 eigenvalue-minimisations  : 33320
 total energy-change (2. order) : 0.5808862E-02  (-0.1468596E-02)
 number of electron     810.0000011 magnetization      -0.0005996
 augmentation part      209.1382157 magnetization      -0.0056607

 Broyden mixing:
  rms(total) = 0.76130E-02    rms(broyden)= 0.76114E-02
  rms(prec ) = 0.96671E-02
  weight for this iteration     100.00

[...]
      3.80462      3.99932      7.62868         0.004196      0.002392      0.003533
      3.87810      7.85799     11.47366        -0.001786      0.004199      0.004225
      3.74421      7.86335      3.85555         0.003225      0.001816     -0.001697
      3.75608      7.61917      7.82571         0.001486     -0.000260     -0.001916
      7.79473      0.12281     11.48679        -0.004068     -0.002640      0.005761
      7.73826      0.15362      3.86899        -0.002483      0.000351     -0.002791
      7.67762      0.11177      7.85949         0.000224      0.000590      0.001461
      7.85312      3.75487     11.49900         0.001391     -0.002306      0.003814
      7.61307      3.77850      3.86863         0.003588     -0.000055     -0.000547
      7.75287      3.73918      7.86458         0.000599      0.000767     -0.000633
      7.84926      7.73512     11.51095        -0.000813      0.000950      0.005039
      7.73325      7.73933      3.87269        -0.002913      0.001707     -0.002739
      7.72809      7.73457      7.88437         0.000130      0.000614      0.002859
     11.52856      1.94075      3.88412        -0.000095     -0.004485      0.002012
      0.05091      5.80059     11.56909        -0.001861     -0.000127     -0.001815
      0.01230      9.66337      7.80677         0.005390      0.006713      0.000969
      3.96453      5.78659      7.75104         0.007817      0.001309      0.001652
      3.85836      9.66283      0.05346        -0.002627     -0.007500      0.005275
      3.98081      9.64540      3.83841         0.004068      0.002509     -0.002393
      7.67800      1.93357      0.06375        -0.001586      0.003378      0.001153
      7.80127      1.92845      3.86869         0.002426      0.002919      0.000334
      7.77601      1.93696      7.67390         0.004506     -0.001407      0.000827
      1.93511     11.55336      3.86200        -0.003286     -0.003589      0.000182
      1.91892      3.87008      7.77902         0.001314      0.002418      0.003477
      1.93573      7.75973      3.88838        -0.006047      0.005101      0.004523
      1.94224      7.67565      7.69466         0.002178     -0.005614     -0.004414
      5.79535     11.56033      7.69357         0.000390     -0.000873     -0.002468
      5.81611      3.88165      3.82363        -0.004645      0.000279     -0.000960
      9.69132     11.55695      0.03245         0.000952     -0.003227      0.001908
      9.66299      3.86600     11.59789        -0.008147     -0.002282     -0.000576
      9.64109      7.75757      0.01268        -0.001566      0.000709     -0.000744
     11.57193     11.54620      5.79928        -0.002575     -0.005379      0.004632
      0.05428      3.85240      1.92991         0.001623     -0.002054      0.002584
     11.49996      7.73738      5.77874        -0.005629      0.000691     -0.000818
      3.90476      0.09180      1.91974         0.000889      0.004584      0.005773
      3.86921      3.83977      5.79000        -0.000117      0.000836      0.000957
      3.93490      7.74558      9.68174        -0.000337      0.005686     -0.003389
      7.74081     11.53246      9.66427        -0.000030      0.000088     -0.005436
      7.68131      3.92880      9.65729        -0.002503     -0.000750      0.000971
      7.65968      7.73725      9.65675        -0.004118      0.001694     -0.004890
      0.05854      1.91403     11.58611        -0.002785     -0.003029      0.000656
     11.54390      1.94667      7.71207         0.001520     -0.001069     -0.006878
     11.55602      5.80340      3.84293         0.001270      0.001596     -0.001755
     11.53105      5.78831      7.80597         0.001110     -0.001044      0.001803
      0.09770      9.65647     11.56231         0.000828     -0.000681     -0.002015
     11.49790      9.65734      3.76428        -0.002395     -0.000390     -0.003454
      3.90930      1.96554     11.53368         0.001977      0.000803     -0.003667
      3.87740      1.94242      3.84932        -0.003901      0.001978      0.001402
      3.88859      1.94209      7.82129         0.002387      0.000577      0.004011
      3.81209      5.75663      0.01693        -0.003961      0.000741     -0.001797
      3.87895      5.80006      3.82602        -0.003273     -0.000996      0.000675
      3.82270      9.68505      7.67389        -0.004258      0.001647     -0.004909
      7.66510      5.81712      0.08018         0.000706     -0.001378     -0.000128
      7.78266      5.84144      3.87329         0.001703     -0.000749      0.001477
      7.66660      5.82737      7.64051        -0.003580      0.001639      0.002181
      7.63163      9.65005      0.09177        -0.002743     -0.000638      0.001694
      7.66171      9.62900      3.87286        -0.006068      0.000329      0.001550
      7.81981      9.63837      7.63390         0.005899      0.000803      0.000112
      1.92102      0.05451     11.56800        -0.002116      0.001258     -0.001886
      1.96478      0.07052      7.75214        -0.000273      0.004585     -0.001276
      1.97766      3.80254     11.49475         0.000694     -0.003705     -0.007108
      1.94838      3.89689      3.88182         0.000215      0.000074      0.002700
      1.93444      7.72841      0.03599        -0.000590     -0.001589     -0.001694
      5.78569     11.59296     11.55382        -0.000314     -0.001927     -0.003389
      5.82653      0.04553      3.97126        -0.001065      0.006271      0.006856
      5.75030      3.92710      0.11200         0.001054      0.002067      0.008251
      5.80623      3.80766      7.69632         0.002341     -0.004038     -0.003440
      5.81204      7.67144      0.09778        -0.002374     -0.003074      0.000768
      5.85122      7.63081      3.88574        -0.000856     -0.004432      0.002650
      5.83295      7.84592      7.61423         0.001956      0.008097     -0.002343
      9.63680     11.48304      3.75516         0.000996     -0.001401     -0.006503
      9.67700     11.58909      7.75682         0.003988     -0.000927      0.003103
      9.63807      3.96538      3.88013         0.000728      0.000705      0.001331
      9.68737      3.92800      7.71406         0.001718      0.002790      0.000546
      9.61397      7.75539      3.77135         0.000662      0.002172     -0.004951
      9.63736      7.66829      7.76988         0.001200     -0.001319      0.005931
      0.04003     11.57684      1.90472         0.002471     -0.000299     -0.001325
      0.01632      0.06897      9.66806        -0.000679      0.002110     -0.003642
     11.60026      3.93861      5.80425         0.002974      0.003167      0.000515
     11.58564      3.79463      9.66074        -0.002181     -0.005835     -0.002650
     11.58252      7.74563      1.93712         0.002242     -0.001942     -0.000001
     11.58653      7.72877      9.66846         0.002435     -0.000378     -0.002313
      3.84680      0.08589      5.80920        -0.002242      0.003563      0.000531
      3.85272      0.00073      9.66956         0.000403     -0.006083     -0.002769
      3.76751      3.82997      1.89797        -0.006997     -0.000563      0.001237
      3.97181      3.86357      9.71132         0.008905      0.002335     -0.000804
      3.90927      7.61956      1.92365        -0.002989     -0.002698     -0.000147
      3.96942      7.70473      5.78436         0.001580     -0.000059      0.001020
      7.63575     11.50844      1.96237        -0.007520      0.000451      0.000828
      7.82962     11.50644      5.76757         0.007066      0.000592      0.002632
      7.75429      3.96359      1.95028         0.002432      0.001195      0.000643
      7.74863      3.96026      5.79035         0.000931      0.000884      0.002155
      7.68352      7.73634      1.97453        -0.003233     -0.000048      0.000505
      7.79894      7.73485      5.76154         0.005147      0.000522      0.003789
 -----------------------------------------------------------------------------------
    total drift:                                0.002455     -0.002020      0.000575


--------------------------------------------------------------------------------------------------------



  FREE ENERGIE OF THE ION-ELECTRON SYSTEM (eV)
  ---------------------------------------------------
  free  energy   TOTEN  =      -720.71187012 eV

  energy  without entropy=     -720.71187012  energy(sigma->0) =     -720.71187012
 


--------------------------------------------------------------------------------------------------------


    POTLOK:  cpu time      1.0470: real time      1.0497


--------------------------------------------------------------------------------------------------------


 Quasi-Newton relaxation of ions (Broydens 2nd method)
  g(Force)  = 0.140E-03   g(Stress)= 0.146E-03

 Reset! Starting new Quasi-Newton update for ions 


--------------------------------------------------------------------------------------------------------


  
 reached required accuracy - stopping structural energy minimisation
 writing wavefunctions
     LOOP+:  cpu time   2188.5928: real time   2195.8963
    4ORBIT:  cpu time      0.0000: real time      0.0000



 total charge

# of ion       s       p       d       tot
------------------------------------------
    1        0.314   6.459   1.758   8.532
    2        0.328   6.455   1.809   8.593
    3        0.322   6.454   1.808   8.584
    4        0.331   6.460   1.831   8.622
    5        0.319   6.450   1.798   8.567
    6        0.314   6.459   1.752   8.526
    7        0.319   6.455   1.776   8.551
    8        0.323   6.455   1.809   8.587
    9        0.328   6.456   1.808   8.592
   10        0.325   6.459   1.819   8.602
   11        0.328   6.455   1.810   8.593
   12        0.314   6.458   1.753   8.525
   13        0.316   6.488   1.677   8.481
   14        0.323   6.459   1.795   8.577
   15        0.329   6.462   1.816   8.607
   16        0.322   6.454   1.810   8.587
   17        0.323   6.454   1.811   8.588
   18        0.327   6.454   1.808   8.589
   19        0.326   6.453   1.802   8.581
   20        0.319   6.463   1.761   8.544
   21        0.327   6.456   1.802   8.585
   22        0.329   6.453   1.826   8.609
   23        0.321   6.462   1.771   8.554
   24        0.321   6.451   1.802   8.573
   25        0.321   6.459   1.776   8.555
   26        0.318   6.492   1.684   8.494
   27        0.319   6.463   1.764   8.546
   28        1.568   3.472   0.000   5.040
   29        1.570   3.474   0.000   5.044
   30        1.570   3.477   0.000   5.046
   31        1.570   3.476   0.000   5.046
   32        1.570   3.483   0.000   5.053
   33        1.569   3.472   0.000   5.041
   34        1.568   3.473   0.000   5.041
   35        1.571   3.474   0.000   5.045
   36        1.569   3.475   0.000   5.044
   37        1.569   3.477   0.000   5.046
   38        1.570   3.468   0.000   5.038
   39        1.569   3.480   0.000   5.050
   40        1.569   3.476   0.000   5.045
   41        1.571   3.467   0.000   5.038
   42        1.569   3.471   0.000   5.040
   43        1.570   3.466   0.000   5.037
   44        1.570   3.483   0.000   5.052
   45        1.569   3.469   0.000   5.038
   46        1.569   3.477   0.000   5.046
   47        1.569   3.477   0.000   5.047
   48        1.569   3.472   0.000   5.041
   49        1.570   3.475   0.000   5.045
   50        1.571   3.480   0.000   5.051
   51        1.568   3.471   0.000   5.039
   52        1.569   3.475   0.000   5.044
   53        1.568   3.473   0.000   5.041
   54        1.571   3.474   0.000   5.045
   55        1.729   4.380   0.000   6.110
   56        1.729   4.376   0.000   6.105
   57        1.729   4.378   0.000   6.107
   58        1.730   4.378   0.000   6.108
   59        1.729   4.374   0.000   6.104
   60        1.729   4.380   0.000   6.109
   61        1.731   4.374   0.000   6.106
   62        1.730   4.381   0.000   6.110
   63        1.730   4.378   0.000   6.108
   64        1.731   4.373   0.000   6.104
   65        1.729   4.379   0.000   6.108
   66        1.729   4.377   0.000   6.106
   67        1.730   4.377   0.000   6.107
   68        1.731   4.378   0.000   6.110
   69        1.730   4.374   0.000   6.104
   70        1.730   4.375   0.000   6.104
   71        1.732   4.372   0.000   6.104
   72        1.730   4.376   0.000   6.106
   73        1.729   4.378   0.000   6.108
   74        1.729   4.377   0.000   6.106
   75        1.732   4.370   0.000   6.102
   76        1.729   4.380   0.000   6.109
   77        1.729   4.380   0.000   6.109
   78        1.730   4.384   0.000   6.114
   79        1.730   4.375   0.000   6.105
   80        1.732   4.371   0.000   6.103
   81        1.729   4.384   0.000   6.114
   82        1.729   4.380   0.000   6.109
   83        1.732   4.372   0.000   6.104
   84        1.730   4.374   0.000   6.105
   85        1.730   4.374   0.000   6.105
   86        1.729   4.385   0.000   6.114
   87        1.729   4.379   0.000   6.108
   88        1.729   4.378   0.000   6.107
   89        1.732   4.372   0.000   6.104
   90        1.730   4.375   0.000   6.105
   91        1.730   4.378   0.000   6.108
   92        1.730   4.378   0.000   6.108
   93        1.729   4.376   0.000   6.105
   94        1.730   4.380   0.000   6.110
   95        1.729   4.378   0.000   6.108
   96        1.729   4.380   0.000   6.110
   97        1.729   4.378   0.000   6.107
   98        1.729   4.377   0.000   6.106
   99        1.731   4.370   0.000   6.102
  100        1.731   4.374   0.000   6.106
  101        1.729   4.378   0.000   6.107
  102        1.729   4.379   0.000   6.108
  103        1.730   4.374   0.000   6.104
  104        1.730   4.374   0.000   6.104
  105        1.730   4.378   0.000   6.108
  106        1.730   4.376   0.000   6.106
  107        1.731   4.378   0.000   6.109
  108        1.732   4.372   0.000   6.104
--------------------------------------------------
tot        144.503 504.557  48.237 697.297



 magnetization (x)

# of ion       s       p       d       tot
------------------------------------------
    1       -0.000  -0.000  -0.000  -0.000
    2       -0.000  -0.000  -0.000  -0.000
    3       -0.000  -0.000  -0.000  -0.000
    4       -0.000  -0.000  -0.000  -0.000
    5       -0.000  -0.000  -0.000  -0.000
    6       -0.000  -0.000  -0.000  -0.000
    7       -0.000  -0.000  -0.000  -0.000
    8       -0.000  -0.000  -0.000  -0.000
    9       -0.000  -0.000  -0.000  -0.000
   10       -0.000  -0.000  -0.000  -0.000
   11       -0.000  -0.000  -0.000  -0.000
   12       -0.000  -0.000  -0.000  -0.000
   13       -0.000  -0.000   0.000   0.000
   14       -0.000  -0.000  -0.000  -0.000
   15       -0.000  -0.000  -0.000  -0.000
   16       -0.000  -0.000  -0.000  -0.000
   17       -0.000  -0.000  -0.000  -0.000
   18       -0.000  -0.000  -0.000  -0.000
   19       -0.000  -0.000  -0.000  -0.000
   20       -0.000  -0.000  -0.000  -0.000
   21       -0.000  -0.000  -0.000  -0.000
   22       -0.000  -0.000  -0.000  -0.000
   23       -0.000  -0.000  -0.000  -0.000
   24       -0.000  -0.000  -0.000  -0.000
   25       -0.000  -0.000  -0.000  -0.000
   26       -0.000  -0.000   0.000   0.000
   27       -0.000  -0.000  -0.000  -0.000
   28        0.000   0.000   0.000   0.000
   29        0.000   0.000   0.000   0.000
   30        0.000   0.000   0.000   0.000
   31        0.000   0.000   0.000   0.000
   32        0.000   0.000   0.000   0.000
   33        0.000   0.000   0.000   0.000
   34        0.000   0.000   0.000   0.000
   35        0.000   0.000   0.000   0.000
   36        0.000   0.000   0.000   0.000
   37        0.000   0.000   0.000   0.000
   38        0.000   0.000   0.000   0.000
   39        0.000   0.000   0.000   0.000
   40        0.000   0.000   0.000   0.000
   41        0.000   0.000   0.000   0.000
   42        0.000   0.000   0.000   0.000
   43        0.000   0.000   0.000   0.000
   44        0.000   0.000   0.000   0.000
   45        0.000   0.000   0.000   0.000
   46        0.000   0.000   0.000   0.000
   47        0.000   0.000   0.000   0.000
   48        0.000   0.000   0.000   0.000
   49        0.000   0.000   0.000   0.000
   50        0.000   0.000   0.000   0.000
   51        0.000   0.000   0.000   0.000
   52        0.000   0.000   0.000   0.000
   53        0.000   0.000   0.000   0.000
   54        0.000   0.000   0.000   0.000
   55        0.000   0.000   0.000   0.000
   56        0.000   0.000   0.000   0.000
   57        0.000   0.000   0.000   0.000
   58        0.000   0.000   0.000   0.000
   59        0.000   0.000   0.000   0.000
   60        0.000   0.000   0.000   0.000
   61        0.000   0.000   0.000   0.000
   62        0.000   0.000   0.000   0.000
   63        0.000   0.000   0.000   0.000
   64        0.000   0.000   0.000   0.000
   65        0.000   0.000   0.000   0.000
   66        0.000   0.000   0.000   0.000
   67        0.000   0.000   0.000   0.000
   68        0.000   0.000   0.000   0.000
   69        0.000   0.000   0.000   0.000
   70        0.000   0.000   0.000   0.000
   71        0.000   0.000   0.000   0.000
   72        0.000   0.000   0.000   0.000
   73        0.000   0.000   0.000   0.000
   74        0.000   0.000   0.000   0.000
   75        0.000   0.000   0.000   0.000
   76        0.000   0.000   0.000   0.000
   77        0.000   0.000   0.000   0.000
   78        0.000   0.000   0.000   0.000
   79        0.000   0.000   0.000   0.000
   80        0.000   0.000   0.000   0.000
   81        0.000   0.000   0.000   0.000
   82        0.000   0.000   0.000   0.000
   83        0.000   0.000   0.000   0.000
   84        0.000   0.000   0.000   0.000
   85        0.000   0.000   0.000   0.000
   86        0.000   0.000   0.000   0.000
   87        0.000   0.000   0.000   0.000
   88        0.000   0.000   0.000   0.000
   89        0.000   0.000   0.000   0.000
   90        0.000   0.000   0.000   0.000
   91        0.000   0.000   0.000   0.000
   92        0.000   0.000   0.000   0.000
   93        0.000   0.000   0.000   0.000
   94        0.000   0.000   0.000   0.000
   95        0.000   0.000   0.000   0.000
   96        0.000   0.000   0.000   0.000
   97        0.000   0.000   0.000   0.000
   98        0.000   0.000   0.000   0.000
   99        0.000   0.000   0.000   0.000
  100        0.000   0.000   0.000   0.000
  101        0.000   0.000   0.000   0.000
  102        0.000   0.000   0.000   0.000
  103        0.000   0.000   0.000   0.000
  104        0.000   0.000   0.000   0.000
  105        0.000   0.000   0.000   0.000
  106        0.000   0.000   0.000   0.000
  107        0.000   0.000   0.000   0.000
  108        0.000   0.000   0.000   0.000
--------------------------------------------------
tot          0.000   0.000  -0.000   0.000
 

 total amount of memory used by VASP MPI-rank0   298564. kBytes
=======================================================================

   base      :      30000. kBytes
   nonlr-proj:      25198. kBytes
   fftplans  :      18873. kBytes
   grid      :      21088. kBytes
   one-center:        435. kBytes
   wavefun   :     202970. kBytes
 
  
  
 General timing and accounting informations for this job:
 ========================================================
  
                  Total CPU time used (sec):     2292.635
                            User time (sec):     2264.881
                          System time (sec):       27.754
                         Elapsed time (sec):     2301.012
  
                   Maximum memory used (kb):      889176.
                   Average memory used (kb):          N/A
  
                          Minor page faults:       239076
                          Major page faults:           14
                 Voluntary context switches:        18184
