 vasp.5.4.4.18Apr17-6-g9f103f2a35 (build Apr 30 2017 20:10:35) complex          
  
 executed on             LinuxIFC date 2017.08.07  13:02:39
 running on   64 total cores
 distrk:  each k-point on   64 cores,    1 groups
 distr:  one band on NCORES_PER_BAND=   8 cores,    8 groups


--------------------------------------------------------------------------------------------------------


 INCAR:
 POTCAR:   PAW_PBE Ti_pv 07Sep2000                
 POTCAR:   PAW_PBE O 08Apr2002                    
 POTCAR:    PAW_PBE F 08Apr2002                   
 POTCAR:   PAW_PBE Ti_pv 07Sep2000                
   VRHFIN =Ti: d3 s1                                                            
   LEXCH  = PE                                                                  
   EATOM  =  1042.3781 eV,   76.6126 Ry                                         
                                                                                
   TITEL  = PAW_PBE Ti_pv 07Sep2000                                             
   LULTRA =        F    use ultrasoft PP ?                                      
   IUNSCR =        1    unscreen: 0-lin 1-nonlin 2-no                           
   RPACOR =    2.200    partial core radius                                     
   POMASS =   47.880; ZVAL   =   10.000    mass and valenz                      
   RCORE  =    2.500    outmost cutoff radius                                   
   RWIGS  =    2.500; RWIGS  =    1.323    wigner-seitz radius (au A)           
   ENMAX  =  222.338; ENMIN  =  166.753 eV                                      
   RCLOC  =    1.701    cutoff for local pot                                    
   LCOR   =        T    correct aug charges                                     
   LPAW   =        T    paw PP                                                  
   EAUG   =  482.848                                                            
   DEXC   =    -.008                                                            
   RMAX   =    3.092    core radius for proj-oper                               
   RAUG   =    1.300    factor for augmentation sphere                          
   RDEP   =    2.538    radius for radial grids                                 
   QCUT   =   -4.042; QGAM   =    8.085    optimization parameters              
                                                                                
   Description                                                                  
     l     E      TYP  RCUT    TYP  RCUT                                        
     1   .000     23  2.300                                                     
     1  -.100     23  2.300                                                     
     2   .000     23  2.500                                                     
     2   .000     23  2.500                                                     
     0   .000     23  2.500                                                     
     0  1.500     23  2.500                                                     
     3   .000      7   .000                                                     
  local pseudopotential read in
  partial core-charges read in
  atomic valenz-charges read in
  non local Contribution for L=           1  read in
    real space projection operators read in
  non local Contribution for L=           1  read in
    real space projection operators read in
  non local Contribution for L=           2  read in
    real space projection operators read in
  non local Contribution for L=           2  read in
    real space projection operators read in
  non local Contribution for L=           0  read in
    real space projection operators read in
  non local Contribution for L=           0  read in
    real space projection operators read in
    PAW grid and wavefunctions read in
 
   number of l-projection  operators is LMAX  =           6
   number of lm-projection operators is LMMAX =          18
 
 POTCAR:   PAW_PBE O 08Apr2002                    
   VRHFIN =O: s2p4                                                              
   LEXCH  = PE                                                                  
   EATOM  =   432.3788 eV,   31.7789 Ry                                         
                                                                                
   TITEL  = PAW_PBE O 08Apr2002                                                 
   LULTRA =        F    use ultrasoft PP ?                                      
   IUNSCR =        0    unscreen: 0-lin 1-nonlin 2-no                           
   RPACOR =     .000    partial core radius                                     
   POMASS =   16.000; ZVAL   =    6.000    mass and valenz                      
   RCORE  =    1.520    outmost cutoff radius                                   
   RWIGS  =    1.550; RWIGS  =     .820    wigner-seitz radius (au A)           
   ENMAX  =  400.000; ENMIN  =  300.000 eV                                      
   ICORE  =        2    local potential                                         
   LCOR   =        T    correct aug charges                                     
   LPAW   =        T    paw PP                                                  
   EAUG   =  605.392                                                            
   DEXC   =     .000                                                            
   RMAX   =    2.264    core radius for proj-oper                               
   RAUG   =    1.300    factor for augmentation sphere                          
   RDEP   =    1.550    radius for radial grids                                 
   QCUT   =   -5.520; QGAM   =   11.041    optimization parameters              
                                                                                
   Description                                                                  
     l     E      TYP  RCUT    TYP  RCUT                                        
     0   .000     23  1.200                                                     
     0  -.700     23  1.200                                                     
     1   .000     23  1.520                                                     
     1   .600     23  1.520                                                     
     2   .000      7  1.500                                                     
  local pseudopotential read in
  atomic valenz-charges read in
  non local Contribution for L=           0  read in
    real space projection operators read in
  non local Contribution for L=           0  read in
    real space projection operators read in
  non local Contribution for L=           1  read in
    real space projection operators read in
  non local Contribution for L=           1  read in
    real space projection operators read in
    PAW grid and wavefunctions read in
 
   number of l-projection  operators is LMAX  =           4
   number of lm-projection operators is LMMAX =           8
 
 POTCAR:    PAW_PBE F 08Apr2002                   
   VRHFIN =F: s2p5                                                              
   LEXCH  = PE                                                                  
   EATOM  =   659.6475 eV,   48.4827 Ry                                         
                                                                                
   TITEL  = PAW_PBE F 08Apr2002                                                 
   LULTRA =        F    use ultrasoft PP ?                                      
   IUNSCR =        1    unscreen: 0-lin 1-nonlin 2-no                           
   RPACOR =    1.200    partial core radius                                     
   POMASS =   18.998; ZVAL   =    7.000    mass and valenz                      
   RCORE  =    1.520    outmost cutoff radius                                   
   RWIGS  =    1.500; RWIGS  =    0.794    wigner-seitz radius (au A)           
   ENMAX  =  400.000; ENMIN  =  300.000 eV                                      
   ICORE  =        2    local potential                                         
   LCOR   =        T    correct aug charges                                     
   LPAW   =        T    paw PP                                                  
   EAUG   =  613.614                                                            
   RMAX   =    1.555    core radius for proj-oper                               
   RAUG   =    1.300    factor for augmentation sphere                          
   RDEP   =    1.539    radius for radial grids                                 
   RDEPT  =    1.299    core radius for aug-charge                              
                                                                                
   Atomic configuration                                                         
    4 entries                                                                   
     n  l   j            E        occ.                                          
     1  0  0.50      -663.3661   2.0000                                         
     2  0  0.50       -29.8995   2.0000                                         
     2  1  0.50       -11.1114   5.0000                                         
     3  2  1.50       -10.8847   0.0000                                         
   Description                                                                  
     l       E           TYP  RCUT    TYP  RCUT                                 
     0    -29.8995018     23  1.200                                             
     0     -9.5240782     23  1.200                                             
     1    -11.1113914     23  1.520                                             
     1      1.3605826     23  1.520                                             
     2    -10.8846608      7  1.500                                             
  local pseudopotential read in
  partial core-charges read in
  partial kinetic energy density read in
  atomic valenz-charges read in
  non local Contribution for L=           0  read in
    real space projection operators read in
  non local Contribution for L=           0  read in
    real space projection operators read in
  non local Contribution for L=           1  read in
    real space projection operators read in
  non local Contribution for L=           1  read in
    real space projection operators read in
    PAW grid and wavefunctions read in
 
   number of l-projection  operators is LMAX  =           4
   number of lm-projection operators is LMMAX =           8
 
 Optimization of the real space projectors (new method)

 maximal supplied QI-value         = 15.12
 optimisation between [QCUT,QGAM] = [ 13.45, 27.06] = [ 50.69,205.06] Ry 
 Optimized for a Real-space Cutoff    1.49 Angstroem

   l    n(q)    QCUT    max X(q) W(low)/X(q) W(high)/X(q)  e(spline) 
   1     12    13.455     4.841    0.13E-05    0.83E-06    0.56E-07
   1     12    13.455     5.701    0.32E-04    0.25E-04    0.17E-06
   2     11    13.455     4.569    0.64E-05    0.34E-05    0.50E-07
   2     11    13.455    32.276    0.49E-04    0.38E-04    0.46E-06
   0     12    13.455    30.046    0.17E-04    0.41E-05    0.51E-07
   0     12    13.455    45.433    0.12E-04    0.27E-04    0.38E-06
 Optimization of the real space projectors (new method)

 maximal supplied QI-value         = 24.76
 optimisation between [QCUT,QGAM] = [ 13.37, 26.98] = [ 50.04,203.89] Ry 
 Optimized for a Real-space Cutoff    1.17 Angstroem

   l    n(q)    QCUT    max X(q) W(low)/X(q) W(high)/X(q)  e(spline) 
   0      9    13.368     4.192    0.20E-04    0.58E-05    0.56E-07
   0      9    13.368     8.473    0.60E-04    0.52E-04    0.21E-06
   1      9    13.368     2.474    0.22E-04    0.17E-04    0.28E-07
   1      9    13.368     3.912    0.94E-04    0.97E-04    0.20E-06
 Optimization of the real space projectors (new method)

 maximal supplied QI-value         = 24.76
 optimisation between [QCUT,QGAM] = [ 13.37, 26.98] = [ 50.04,203.89] Ry 
 Optimized for a Real-space Cutoff    1.17 Angstroem

   l    n(q)    QCUT    max X(q) W(low)/X(q) W(high)/X(q)  e(spline) 
   0      9    13.368    14.049    0.39E-04    0.34E-04    0.16E-06
   0      9    13.368     8.945    0.54E-04    0.47E-04    0.20E-06
   1      9    13.368     7.086    0.99E-04    0.10E-03    0.23E-06
   1      9    13.368     6.747    0.86E-04    0.89E-04    0.21E-06

 ----------------------------------------------------------------------------- 
|                                                                             |
|  ADVICE TO THIS USER RUNNING 'VASP/VAMP'   (HEAR YOUR MASTER'S VOICE ...):  |
|                                                                             |
|      You enforced a specific xc-type in the INCAR file,                     |
|      a different type was found on the POTCAR file                          |
|          I HOPE YOU KNOW, WHAT YOU ARE  DOING                               |
|                                                                             |
 ----------------------------------------------------------------------------- 

 PAW_PBE Ti_pv 07Sep2000                :
 energy of atom  1       EATOM=-1042.3781
 kinetic energy error for atom=    0.0006 (will be added to EATOM!!)
 PAW_PBE O 08Apr2002                    :
 energy of atom  2       EATOM= -432.3788
 kinetic energy error for atom=    0.0091 (will be added to EATOM!!)
  PAW_PBE F 08Apr2002                   :
 energy of atom  3       EATOM= -659.6475
 kinetic energy error for atom=    0.0140 (will be added to EATOM!!)
 
 
 POSCAR: TiOF2 2x2x2 config 1000                 
  positions in direct lattice
  velocities in cartesian coordinates
 exchange correlation table for  LEXCH =       14
   RHO(1)=    0.500       N(1)  =     2000
   RHO(2)=  100.500       N(2)  =     4000

 VTST: version 3.1, (03/28/14)

 CHAIN: initializing optimizer
 
 OPT: Using VASP QUASI-newton optimizer
 CHAIN: Read ICHAIN            0
 
 POSCAR: TiOF2 2x2x2 config 1000                 
  positions in direct lattice
  velocities in cartesian coordinates
 


--------------------------------------------------------------------------------------------------------


 ion  position               nearest neighbor table
   1  0.000  0.979  1.000-  10 1.71  30 1.95  29 1.95  21 1.96  17 1.96  24 2.01
   2  0.001  0.002  0.500-  25 1.84  26 1.85  30 1.87  29 1.87  18 1.91  22 1.91
   3  0.001  0.500  0.000-  13 1.89  14 1.89  19 1.95  23 1.96  10 2.02  24 2.04
   4  0.983  0.500  0.500-   9 1.82  14 1.93  13 1.93  25 2.05  26 2.06  20 2.08
   5  0.500  0.025  0.000-  11 1.71  31 1.92  32 1.92  21 1.98  17 1.98  28 2.02
   6  0.500  0.977  0.500-  12 1.70  32 1.91  31 1.91  27 2.00  18 2.02  22 2.03
   7  0.500  0.503  1.000-  16 1.88  15 1.89  19 1.97  23 1.97  11 2.01  28 2.05
   8  0.510  0.497  0.500-   9 1.90  15 1.93  16 1.93  12 2.03  27 2.05  20 2.06
   9  0.752  0.497  0.500-   4 1.82   8 1.90
  10  0.000  0.759  0.000-   1 1.71   3 2.02
  11  0.500  0.245  0.000-   5 1.71   7 2.01
  12  0.500  0.758  0.500-   6 1.70   8 2.03
  13  0.002  0.499  0.248-   3 1.89   4 1.93
  14  0.002  0.499  0.752-   3 1.89   4 1.93
  15  0.498  0.501  0.247-   7 1.89   8 1.93
  16  0.498  0.501  0.753-   7 1.88   8 1.93
  17  0.249  0.002  0.000-   1 1.96   5 1.98
  18  0.243  0.000  0.500-   2 1.91   6 2.02
  19  0.249  0.502  1.000-   3 1.95   7 1.97
  20  0.247  0.496  0.500-   8 2.06   4 2.08
  21  0.752  0.002  1.000-   1 1.96   5 1.98
  22  0.758  0.001  0.500-   2 1.91   6 2.03
  23  0.751  0.502  0.000-   3 1.96   7 1.97
  24  0.000  0.237  1.000-   1 2.01   3 2.04
  25  0.002  0.238  0.500-   2 1.84   4 2.05
  26  0.002  0.764  0.500-   2 1.85   4 2.06
  27  0.499  0.234  0.500-   6 2.00   8 2.05
  28  0.500  0.765  0.000-   5 2.02   7 2.05
  29  1.000  0.006  0.254-   2 1.87   1 1.95
  30  1.000  0.006  0.746-   2 1.87   1 1.95
  31  0.501  0.001  0.251-   6 1.91   5 1.92
  32  0.501  0.001  0.749-   6 1.91   5 1.92
 

IMPORTANT INFORMATION: All symmetrisations will be switched off!
NOSYMM: (Re-)initialisation of all symmetry stuff for point group C_1.

 
 
 KPOINTS: Title                                   

Automatic generation of k-mesh.
Space group operators:
 irot       det(A)        alpha          n_x          n_y          n_z        tau_x        tau_y        tau_z
    1     1.000000     0.000000     1.000000     0.000000     0.000000     0.000000     0.000000     0.000000
 
 Subroutine IBZKPT returns following result:
 ===========================================
 
 Found     32 irreducible k-points:
 
 Following reciprocal coordinates:
            Coordinates               Weight
  0.125000  0.125000  0.125000      2.000000
  0.375000  0.125000  0.125000      2.000000
 -0.375000  0.125000  0.125000      2.000000
 -0.125000  0.125000  0.125000      2.000000
  0.125000  0.375000  0.125000      2.000000
  0.375000  0.375000  0.125000      2.000000
 -0.375000  0.375000  0.125000      2.000000
 -0.125000  0.375000  0.125000      2.000000
  0.125000 -0.375000  0.125000      2.000000
  0.375000 -0.375000  0.125000      2.000000
 -0.375000 -0.375000  0.125000      2.000000
 -0.125000 -0.375000  0.125000      2.000000
  0.125000 -0.125000  0.125000      2.000000
  0.375000 -0.125000  0.125000      2.000000
 -0.375000 -0.125000  0.125000      2.000000
 -0.125000 -0.125000  0.125000      2.000000
  0.125000  0.125000  0.375000      2.000000
  0.375000  0.125000  0.375000      2.000000
 -0.375000  0.125000  0.375000      2.000000
 -0.125000  0.125000  0.375000      2.000000
  0.125000  0.375000  0.375000      2.000000
  0.375000  0.375000  0.375000      2.000000
 -0.375000  0.375000  0.375000      2.000000
 -0.125000  0.375000  0.375000      2.000000
  0.125000 -0.375000  0.375000      2.000000
  0.375000 -0.375000  0.375000      2.000000
 -0.375000 -0.375000  0.375000      2.000000
 -0.125000 -0.375000  0.375000      2.000000
  0.125000 -0.125000  0.375000      2.000000
  0.375000 -0.125000  0.375000      2.000000
 -0.375000 -0.125000  0.375000      2.000000
 -0.125000 -0.125000  0.375000      2.000000
 
 Following cartesian coordinates:
            Coordinates               Weight
  0.015922  0.016045  0.016399      2.000000
  0.047758  0.016052  0.016399      2.000000
 -0.047751  0.016030  0.016400      2.000000
 -0.015915  0.016037  0.016400      2.000000
  0.015929  0.048127  0.016399      2.000000
  0.047766  0.048134  0.016399      2.000000
 -0.047744  0.048112  0.016399      2.000000
 -0.015908  0.048119  0.016399      2.000000
  0.015907 -0.048119  0.016400      2.000000
  0.047744 -0.048112  0.016400      2.000000
 -0.047766 -0.048134  0.016400      2.000000
 -0.015929 -0.048126  0.016400      2.000000
  0.015914 -0.016037  0.016400      2.000000
  0.047751 -0.016030  0.016399      2.000000
 -0.047759 -0.016052  0.016400      2.000000
 -0.015922 -0.016045  0.016400      2.000000
  0.015921  0.016045  0.049198      2.000000
  0.047758  0.016053  0.049198      2.000000
 -0.047752  0.016030  0.049199      2.000000
 -0.015915  0.016038  0.049199      2.000000
  0.015929  0.048127  0.049198      2.000000
  0.047765  0.048135  0.049198      2.000000
 -0.047744  0.048112  0.049199      2.000000
 -0.015908  0.048120  0.049198      2.000000
  0.015907 -0.048119  0.049199      2.000000
  0.047743 -0.048111  0.049199      2.000000
 -0.047766 -0.048134  0.049200      2.000000
 -0.015930 -0.048126  0.049199      2.000000
  0.015914 -0.016037  0.049199      2.000000
  0.047751 -0.016029  0.049198      2.000000
 -0.047759 -0.016052  0.049199      2.000000
 -0.015923 -0.016044  0.049199      2.000000
 


--------------------------------------------------------------------------------------------------------




 Dimension of arrays:
   k-points           NKPTS =     32   k-points in BZ     NKDIM =     32   number of bands    NBANDS=    160
   number of dos      NEDOS =   3001   number of ions     NIONS =     32
   non local maximal  LDIM  =      6   non local SUM 2l+1 LMDIM =     18
   total plane-waves  NPLWV = 343000
   max r-space proj   IRMAX =  10196   max aug-charges    IRDMAX= 228584
   dimension x,y,z NGX =    70 NGY =   70 NGZ =   70
   dimension x,y,z NGXF=   140 NGYF=  140 NGZF=  140
   support grid    NGXF=   280 NGYF=  280 NGZF=  280
   ions per type =               8   8  16
   NGX,Y,Z   is equivalent  to a cutoff of  14.82, 14.93, 15.27 a.u.
   NGXF,Y,Z  is equivalent  to a cutoff of  29.64, 29.87, 30.54 a.u.

 SYSTEM =  LTO                                     
 POSCAR =  TiOF2 2x2x2 config 1000                 

 Startparameter for this run:
   NWRITE =      2    write-flag & timer
   PREC   = accura    normal or accurate (medium, high low for compatibility)
   ISTART =      1    job   : 0-new  1-cont  2-samecut
   ICHARG =      0    charge: 1-file 2-atom 10-const
   ISPIN  =      2    spin polarized calculation?
   LNONCOLLINEAR =      F non collinear calculations
   LSORBIT =      F    spin-orbit coupling
   INIWAV =      1    electr: 0-lowe 1-rand  2-diag
   LASPH  =      T    aspherical Exc in radial PAW
   METAGGA=      F    non-selfconsistent MetaGGA calc.

 Electronic Relaxation 1
   ENCUT  =  700.0 eV  51.45 Ry    7.17 a.u.  16.94 16.81 16.44*2*pi/ulx,y,z
   ENINI  =  700.0     initial cutoff
   ENAUG  =  613.6 eV  augmentation charge cutoff
   NELM   =     60;   NELMIN=  2; NELMDL=  0     # of ELM steps 
   EDIFF  = 0.1E-05   stopping-criterion for ELM
   LREAL  =      T    real-space projection
   NLSPLINE    = F    spline interpolate recip. space projectors
   LCOMPAT=      F    compatible to vasp.4.4
   GGA_COMPAT  = T    GGA compatible to vasp.4.4-vasp.4.6
   LMAXPAW     = -100 max onsite density
   LMAXMIX     =    4 max onsite mixed and CHGCAR
   VOSKOWN=      0    Vosko Wilk Nusair interpolation
   ROPT   =   -0.00010  -0.00010  -0.00010
 Ionic relaxation
   EDIFFG = -.1E-01   stopping-criterion for IOM
   NSW    =    100    number of steps for IOM
   NBLOCK =      1;   KBLOCK =    100    inner block; outer block 
   IBRION =      1    ionic relax: 0-MD 1-quasi-New 2-CG
   NFREE  =      0    steps in history (QN), initial steepest desc. (CG)
   ISIF   =      3    stress and relaxation
   IWAVPR =     11    prediction:  0-non 1-charg 2-wave 3-comb
   ISYM   =      0    0-nonsym 1-usesym 2-fastsym
   LCORR  =      T    Harris-Foulkes like correction to forces

   POTIM  = 0.5000    time-step for ionic-motion
   TEIN   =    0.0    initial temperature
   TEBEG  =    0.0;   TEEND  =   0.0 temperature during run
   SMASS  =  -3.00    Nose mass-parameter (am)
   estimated Nose-frequenzy (Omega)   =  0.10E-29 period in steps =****** mass=  -0.141E-26a.u.
   SCALEE = 1.0000    scale energy and forces
   NPACO  =    256;   APACO  = 16.0  distance and # of slots for P.C.
   PSTRESS=    0.0 pullay stress

  Mass of Ions in am
   POMASS =  47.88 16.00 19.00
  Ionic Valenz
   ZVAL   =  10.00  6.00  7.00
  Atomic Wigner-Seitz radii
   RWIGS  =  -1.00 -1.00 -1.00
  virtual crystal weights 
   VCA    =   1.00  1.00  1.00
   NELECT =     240.0000    total number of electrons
   NUPDOWN=      -1.0000    fix difference up-down

 DOS related values:
   EMIN   =  10.00;   EMAX   =-10.00  energy-range for DOS
   EFERMI =   0.00
   ISMEAR =     0;   SIGMA  =   0.01  broadening in eV -4-tet -1-fermi 0-gaus

 Electronic relaxation 2 (details)
   IALGO  =     38    algorithm
   LDIAG  =      T    sub-space diagonalisation (order eigenvalues)
   LSUBROT=      F    optimize rotation matrix (better conditioning)
   TURBO    =      0    0=normal 1=particle mesh
   IRESTART =      0    0=no restart 2=restart with 2 vectors
   NREBOOT  =      0    no. of reboots
   NMIN     =      0    reboot dimension
   EREF     =   0.00    reference energy to select bands
   IMIX   =      4    mixing-type and parameters
     AMIX     =   0.40;   BMIX     =  1.00
     AMIX_MAG =   1.60;   BMIX_MAG =  1.00
     AMIN     =   0.10
     WC   =   100.;   INIMIX=   1;  MIXPRE=   1;  MAXMIX= -45

 Intra band minimization:
   WEIMIN = 0.0010     energy-eigenvalue tresh-hold
   EBREAK =  0.16E-08  absolut break condition
   DEPER  =   0.30     relativ break condition  

   TIME   =   0.40     timestep for ELM

  volume/ion in A,a.u.               =      14.58        98.36
  Fermi-wavevector in a.u.,A,eV,Ry     =   1.311863  2.479062 23.415416  1.720985
  Thomas-Fermi vector in A             =   2.442295
 
 Write flags
   LWAVE        =      T    write WAVECAR
   LDOWNSAMPLE  =      F    k-point downsampling of WAVECAR
   LCHARG       =      T    write CHGCAR
   LVTOT        =      F    write LOCPOT, total local potential
   LVHAR        =      F    write LOCPOT, Hartree potential only
   LELF         =      F    write electronic localiz. function (ELF)
   LORBIT       =     11    0 simple, 1 ext, 2 COOP (PROOUT), +10 PAW based schemes


 Dipole corrections
   LMONO  =      F    monopole corrections only (constant potential shift)
   LDIPOL =      F    correct potential (dipole corrections)
   IDIPOL =      0    1-x, 2-y, 3-z, 4-all directions 
   EPSILON=  1.0000000 bulk dielectric constant

 LDA+U is selected, type is set to LDAUTYPE =  2
   angular momentum for each species LDAUL =     2   -1   -1
   U (eV)           for each species LDAUU =   4.2  0.0  0.0
   J (eV)           for each species LDAUJ =   0.0  0.0  0.0
 Exchange correlation treatment:
   GGA     =    PS    GGA type
   LEXCH   =    14    internal setting for exchange type
   VOSKOWN=      0    Vosko Wilk Nusair interpolation
   LHFCALC =     F    Hartree Fock is set to
   LHFONE  =     F    Hartree Fock one center treatment
   AEXX    =    0.0000 exact exchange contribution

 Linear response parameters
   LEPSILON=     F    determine dielectric tensor
   LRPA    =     F    only Hartree local field effects (RPA)
   LNABLA  =     F    use nabla operator in PAW spheres
   LVEL    =     F    velocity operator in full k-point grid
   LINTERFAST=   F  fast interpolation
   KINTER  =     0    interpolate to denser k-point grid
   CSHIFT  =0.1000    complex shift for real part using Kramers Kronig
   OMEGAMAX=  -1.0    maximum frequency
   DEG_THRESHOLD= 0.2000000E-02 threshold for treating states as degnerate
   RTIME   =   -0.100 relaxation time in fs
  (WPLASMAI=    0.000 imaginary part of plasma frequency in eV, 0.658/RTIME)
   DFIELD  = 0.0000000 0.0000000 0.0000000 field for delta impulse in time
 
 Orbital magnetization related:
   ORBITALMAG=     F  switch on orbital magnetization
   LCHIMAG   =     F  perturbation theory with respect to B field
   DQ        =  0.001000  dq finite difference perturbation B field
   LLRAUG    =     F  two centre corrections for induced B field



--------------------------------------------------------------------------------------------------------


 quasi-Newton-method for relaxation of ions
 charge density and potential will be updated during run
 spin polarized calculation
 Variant of blocked Davidson
 Davidson routine will perform the subspace rotation
 perform sub-space diagonalisation
    after iterative eigenvector-optimisation
 modified Broyden-mixing scheme, WC =      100.0
 initial mixing is a Kerker type mixing with AMIX =  0.4000 and BMIX =      1.0000
 Hartree-type preconditioning will be used
 using additional bands           40
 real space projection scheme for non local part
 use partial core corrections
 calculate Harris-corrections to forces 
   (improved forces if not selfconsistent)
 use gradient corrections 
 use of overlap-Matrix (Vanderbilt PP)
 Gauss-broadening in eV      SIGMA  =   0.01


--------------------------------------------------------------------------------------------------------


  energy-cutoff  :      700.00
  volume of cell :      466.41
      direct lattice vectors                 reciprocal lattice vectors
     7.852604456 -0.001787074  0.000090538     0.127346291  0.000029619 -0.000001019
    -0.001812467  7.792538264 -0.000084090     0.000029205  0.128327898 -0.000001231
     0.000061003  0.000073115  7.622152558    -0.000001512  0.000001415  0.131196534

  length of vectors
     7.852604660  7.792538476  7.622152558     0.127346295  0.128327901  0.131196534


 
 old parameters found on file WAVECAR:
  energy-cutoff  :      700.00
  volume of cell :      466.18
      direct lattice vectors                 reciprocal lattice vectors
     7.850808335 -0.001813472 -0.000066333     0.127375426  0.000030061  0.000001525
    -0.001838635  7.790772425 -0.000060968     0.000029649  0.128356984 -0.000001611
    -0.000091254  0.000095669  7.621770284     0.000001109  0.000001027  0.131203115

  length of vectors

 
 k-points in units of 2pi/SCALE and weight: Title                                   
   0.01592175  0.01604487  0.01639929       0.031
   0.04775832  0.01605227  0.01639903       0.031
  -0.04775140  0.01603006  0.01639980       0.031
  -0.01591482  0.01603746  0.01639954       0.031
   0.01592905  0.04812684  0.01639898       0.031
   0.04776562  0.04813425  0.01639872       0.031
  -0.04774410  0.04811203  0.01639949       0.031
  -0.01590752  0.04811944  0.01639923       0.031
   0.01590715 -0.04811908  0.01639990       0.031
   0.04774372 -0.04811168  0.01639965       0.031
  -0.04776600 -0.04813389  0.01640041       0.031
  -0.01592943 -0.04812649  0.01640016       0.031
   0.01591445 -0.01603711  0.01639959       0.031
   0.04775102 -0.01602970  0.01639934       0.031
  -0.04775870 -0.01605192  0.01640010       0.031
  -0.01592213 -0.01604451  0.01639985       0.031
   0.01592137  0.01604522  0.04919842       0.031
   0.04775794  0.01605263  0.04919816       0.031
  -0.04775178  0.01603041  0.04919893       0.031
  -0.01591520  0.01603782  0.04919867       0.031
   0.01592867  0.04812719  0.04919811       0.031
   0.04776524  0.04813460  0.04919786       0.031
  -0.04774447  0.04811239  0.04919862       0.031
  -0.01590790  0.04811979  0.04919837       0.031
   0.01590677 -0.04811873  0.04919903       0.031
   0.04774334 -0.04811132  0.04919878       0.031
  -0.04776638 -0.04813354  0.04919954       0.031
  -0.01592981 -0.04812613  0.04919929       0.031
   0.01591407 -0.01603675  0.04919873       0.031
   0.04775064 -0.01602935  0.04919847       0.031
  -0.04775908 -0.01605156  0.04919924       0.031
  -0.01592250 -0.01604416  0.04919898       0.031
 
 k-points in reciprocal lattice and weights: Title                                   
   0.12500000  0.12500000  0.12500000       0.031
   0.37500000  0.12500000  0.12500000       0.031
  -0.37500000  0.12500000  0.12500000       0.031
  -0.12500000  0.12500000  0.12500000       0.031
   0.12500000  0.37500000  0.12500000       0.031
   0.37500000  0.37500000  0.12500000       0.031
  -0.37500000  0.37500000  0.12500000       0.031
  -0.12500000  0.37500000  0.12500000       0.031
   0.12500000 -0.37500000  0.12500000       0.031
   0.37500000 -0.37500000  0.12500000       0.031
  -0.37500000 -0.37500000  0.12500000       0.031
  -0.12500000 -0.37500000  0.12500000       0.031
   0.12500000 -0.12500000  0.12500000       0.031
   0.37500000 -0.12500000  0.12500000       0.031
  -0.37500000 -0.12500000  0.12500000       0.031
  -0.12500000 -0.12500000  0.12500000       0.031
   0.12500000  0.12500000  0.37500000       0.031
   0.37500000  0.12500000  0.37500000       0.031
  -0.37500000  0.12500000  0.37500000       0.031
  -0.12500000  0.12500000  0.37500000       0.031
   0.12500000  0.37500000  0.37500000       0.031
   0.37500000  0.37500000  0.37500000       0.031
  -0.37500000  0.37500000  0.37500000       0.031
  -0.12500000  0.37500000  0.37500000       0.031
   0.12500000 -0.37500000  0.37500000       0.031
   0.37500000 -0.37500000  0.37500000       0.031
  -0.37500000 -0.37500000  0.37500000       0.031
  -0.12500000 -0.37500000  0.37500000       0.031
   0.12500000 -0.12500000  0.37500000       0.031
   0.37500000 -0.12500000  0.37500000       0.031
  -0.37500000 -0.12500000  0.37500000       0.031
  -0.12500000 -0.12500000  0.37500000       0.031
 
 position of ions in fractional coordinates (direct lattice) 
   0.00018307  0.97892673  0.99999441
   0.00072022  0.00159787  0.49999158
   0.00079012  0.49951387  0.00024018
   0.98282300  0.50005400  0.50027609
   0.50023206  0.02506999  0.00001479
   0.50019519  0.97693404  0.50001405
   0.49974774  0.50292381  0.99973852
   0.50992922  0.49731803  0.49968989
   0.75151667  0.49682856  0.49999607
   0.00010571  0.75922414  0.00001545
   0.50034791  0.24485988  0.00001088
   0.49996400  0.75820872  0.50000676
   0.00203743  0.49922171  0.24766298
   0.00202717  0.49925988  0.75222666
   0.49792432  0.50143655  0.24721574
   0.49792000  0.50145132  0.75292484
   0.24852922  0.00197831  0.00001187
   0.24347050  0.00040594  0.49999113
   0.24932340  0.50178676  0.99999526
   0.24715576  0.49629138  0.49999324
   0.75191081  0.00199140  0.99999303
   0.75759831  0.00094730  0.50001412
   0.75112964  0.50175179  0.00000265
   0.00019655  0.23709511  0.99996029
   0.00239403  0.23818263  0.50000158
   0.00180740  0.76405860  0.49995483
   0.49859692  0.23396670  0.50002784
   0.50031109  0.76541261  0.00002528
   0.99987472  0.00588393  0.25446961
   0.99989964  0.00583518  0.74551435
   0.50067957  0.00079585  0.25068216
   0.50065861  0.00078740  0.74934385
 
 position of ions in cartesian coordinates  (Angst):
  -0.00027568  7.62839683  7.62202765
   0.00568320  0.01248676  3.81101206
   0.00529919  3.89247955  0.00178875
   7.71684449  3.89497015  3.81322759
   3.92807907  0.19446492  0.00015594
   3.92609479  7.61193859  3.81114654
   3.92347081  3.91823301  7.62016250
   4.00340159  3.87449500  3.80871692
   5.90049313  3.87024908  3.81107261
  -0.00054594  5.91628295  0.00005393
   3.92859040  1.90718580  0.00010765
   3.92467579  5.90751355  3.81110932
   0.01510944  3.89021874  1.88768321
   0.01505958  3.89055312  5.73354456
   3.90910900  3.90659172  1.88431900
   3.90910584  3.90674384  5.73891093
   1.95159809  0.01497188  0.00011284
   1.91190728  0.00276478  3.81103064
   1.95698954  3.90982011  7.62209684
   1.93994740  3.86696445  3.81100541
   5.90451561  0.01424745  7.62216734
   5.94914861  0.00606452  3.81125239
   5.89741452  3.90857772  0.00004601
   0.00117468  1.84764548  7.62182997
   0.01839821  1.85607951  3.81106854
   0.01283849  5.95398923  3.81066792
   3.91489087  1.82234002  3.81131396
   3.92735779  5.96361300  0.00017359
   7.85162552  0.04408247  1.93969619
   7.85185124  0.04373850  5.68251414
   3.93165249  0.00532526  1.91078291
   3.93151831  0.00529596  5.71165844
 


--------------------------------------------------------------------------------------------------------


 k-point  1 :   0.1250 0.1250 0.1250  plane waves:   19623
 k-point  2 :   0.3750 0.1250 0.1250  plane waves:   19637
 k-point  3 :  -0.3750 0.1250 0.1250  plane waves:   19638
 k-point  4 :  -0.1250 0.1250 0.1250  plane waves:   19622
 k-point  5 :   0.1250 0.3750 0.1250  plane waves:   19614
 k-point  6 :   0.3750 0.3750 0.1250  plane waves:   19617
 k-point  7 :  -0.3750 0.3750 0.1250  plane waves:   19618
 k-point  8 :  -0.1250 0.3750 0.1250  plane waves:   19611
 k-point  9 :   0.1250-0.3750 0.1250  plane waves:   19611
 k-point 10 :   0.3750-0.3750 0.1250  plane waves:   19618
 k-point 11 :  -0.3750-0.3750 0.1250  plane waves:   19617
 k-point 12 :  -0.1250-0.3750 0.1250  plane waves:   19614
 k-point 13 :   0.1250-0.1250 0.1250  plane waves:   19623
 k-point 14 :   0.3750-0.1250 0.1250  plane waves:   19639
 k-point 15 :  -0.3750-0.1250 0.1250  plane waves:   19636
 k-point 16 :  -0.1250-0.1250 0.1250  plane waves:   19623
 k-point 17 :   0.1250 0.1250 0.3750  plane waves:   19590
 k-point 18 :   0.3750 0.1250 0.3750  plane waves:   19611
 k-point 19 :  -0.3750 0.1250 0.3750  plane waves:   19609
 k-point 20 :  -0.1250 0.1250 0.3750  plane waves:   19595
 k-point 21 :   0.1250 0.3750 0.3750  plane waves:   19611
 k-point 22 :   0.3750 0.3750 0.3750  plane waves:   19628
 k-point 23 :  -0.3750 0.3750 0.3750  plane waves:   19630
 k-point 24 :  -0.1250 0.3750 0.3750  plane waves:   19613
 k-point 25 :   0.1250-0.3750 0.3750  plane waves:   19614
 k-point 26 :   0.3750-0.3750 0.3750  plane waves:   19628
 k-point 27 :  -0.3750-0.3750 0.3750  plane waves:   19628
 k-point 28 :  -0.1250-0.3750 0.3750  plane waves:   19611
 k-point 29 :   0.1250-0.1250 0.3750  plane waves:   19594
 k-point 30 :   0.3750-0.1250 0.3750  plane waves:   19609
 k-point 31 :  -0.3750-0.1250 0.3750  plane waves:   19613
 k-point 32 :  -0.1250-0.1250 0.3750  plane waves:   19591

 maximum and minimum number of plane-waves per node :      2486     2416

 maximum number of plane-waves:     19639
 maximum index in each direction: 
   IXMAX=   17   IYMAX=   17   IZMAX=   16
   IXMIN=  -17   IYMIN=  -17   IZMIN=  -16


 real space projection operators:
  total allocation   :      18352.64 KBytes
  max/ min on nodes  :       2441.83       1909.05


 parallel 3D FFT for wavefunctions:
    minimum data exchange during FFTs selected (reduces bandwidth)
 parallel 3D FFT for charge:
    minimum data exchange during FFTs selected (reduces bandwidth)


 total amount of memory used by VASP MPI-rank0   107607. kBytes
=======================================================================

   base      :      30000. kBytes
   nonlr-proj:       8503. kBytes
   fftplans  :       8424. kBytes
   grid      :       8783. kBytes
   one-center:        124. kBytes
   wavefun   :      51773. kBytes
 
     INWAV:  cpu time   30.3574: real time   36.8871
 Broyden mixing: mesh for mixing (old mesh)
   NGX = 33   NGY = 33   NGZ = 33
  (NGX  =140   NGY  =140   NGZ  =140)
  gives a total of  35937 points

 charge density for first step will be calculated from the start-wavefunctions


--------------------------------------------------------------------------------------------------------


 Maximum index for non-local projection operator         1371
 Maximum index for augmentation-charges         7673 (set IRDMAX)


--------------------------------------------------------------------------------------------------------


 initial charge from wavefunction
 First call to EWALD:  gamma=   0.229
 Maximum number of real-space cells 3x 3x 3
 Maximum number of reciprocal cells 3x 3x 3

    FEWALD:  cpu time    0.0030: real time    0.0044


--------------------------------------- Iteration      1(   1)  ---------------------------------------


    POTLOK:  cpu time    0.1440: real time    0.3221
    SETDIJ:  cpu time    0.8309: real time    0.8386
     EDDAV:  cpu time   27.9927: real time   28.1028
       DOS:  cpu time    0.0030: real time    0.0033
    CHARGE:  cpu time    1.1898: real time    1.1972
    MIXING:  cpu time    0.0170: real time    0.0173
    --------------------------------------------
      LOOP:  cpu time   30.1774: real time   30.4815

 eigenvalue-minimisations  : 20512
 total energy-change (2. order) :-0.2098793E+03  (-0.6874071E-03)
 number of electron     240.0000005 magnetization      -0.0000000
 augmentation part       61.9951980 magnetization      -0.0000000

 Broyden mixing:
  rms(total) = 0.15380E-02    rms(broyden)= 0.15378E-02
  rms(prec ) = 0.25309E-02
  weight for this iteration     100.00

 Free energy of the ion-electron system (eV)
  ---------------------------------------------------
  alpha Z        PSCENC =       750.76466495
  Ewald energy   TEWEN  =    -12685.02294007
  -Hartree energ DENC   =     -8324.17020661
  -exchange      EXHF   =         0.00000000
  -V(xc)+E(xc)   XCENC  =      1119.37965248
  PAW double counting   =     18019.43560432   -18141.38627614
  entropy T*S    EENTRO =        -0.00000000
  eigenvalues    EBANDS =     -3251.23303562
  atomic energy  EATOM  =     22302.35321627
  Solvation  Ediel_sol  =         0.00000000
  ---------------------------------------------------
  free energy    TOTEN  =      -209.87932042 eV

  energy without entropy =     -209.87932042  energy(sigma->0) =     -209.87932042


--------------------------------------------------------------------------------------------------------




--------------------------------------- Iteration      1(   2)  ---------------------------------------


    POTLOK:  cpu time    0.1360: real time    0.1689
    SETDIJ:  cpu time    0.8279: real time    0.8367
     EDDAV:  cpu time   32.8380: real time   32.9324
       DOS:  cpu time    0.0030: real time    0.0035
    CHARGE:  cpu time    1.1458: real time    1.1542
    MIXING:  cpu time    0.0310: real time    0.0328
    --------------------------------------------
      LOOP:  cpu time   34.9817: real time   35.1284

 eigenvalue-minimisations  : 25264
 total energy-change (2. order) : 0.8906718E-06  (-0.2461351E-05)
 number of electron     240.0000005 magnetization      -0.0000000
 augmentation part       61.9973642 magnetization      -0.0000000

 Broyden mixing:
  rms(total) = 0.13875E-02    rms(broyden)= 0.13873E-02
  rms(prec ) = 0.22376E-02
  weight for this iteration     100.00

 eigenvalues of (default mixing * dielectric matrix)
  average eigenvalue GAMMA=   0.5251
  0.5251

 Free energy of the ion-electron system (eV)
  ---------------------------------------------------
  alpha Z        PSCENC =       750.76466495
  Ewald energy   TEWEN  =    -12685.02294007
  -Hartree energ DENC   =     -8324.14950807
  -exchange      EXHF   =         0.00000000
  -V(xc)+E(xc)   XCENC  =      1119.38112212
  PAW double counting   =     18019.38114446   -18141.33727555
  entropy T*S    EENTRO =        -0.00000000
  eigenvalues    EBANDS =     -3251.24974364
  atomic energy  EATOM  =     22302.35321627
  Solvation  Ediel_sol  =         0.00000000
  ---------------------------------------------------
  free energy    TOTEN  =      -209.87931953 eV

  energy without entropy =     -209.87931953  energy(sigma->0) =     -209.87931953


--------------------------------------------------------------------------------------------------------




--------------------------------------- Iteration      1(   3)  ---------------------------------------


    POTLOK:  cpu time    0.2240: real time    0.2351
    SETDIJ:  cpu time    0.8499: real time    0.8472
     EDDAV:  cpu time   29.0476: real time   29.0388
       DOS:  cpu time    0.0030: real time    0.0029
    CHARGE:  cpu time    1.2168: real time    1.2154
    MIXING:  cpu time    0.0030: real time    0.0023
    --------------------------------------------
      LOOP:  cpu time   31.3442: real time   31.3417

 eigenvalue-minimisations  : 21392
 total energy-change (2. order) : 0.3508798E-05  (-0.5374691E-06)
 number of electron     240.0000005 magnetization      -0.0000000
 augmentation part       61.9963001 magnetization      -0.0000000

 Broyden mixing:
  rms(total) = 0.10892E-03    rms(broyden)= 0.10875E-03
  rms(prec ) = 0.15422E-03
  weight for this iteration     100.00

 eigenvalues of (default mixing * dielectric matrix)
  average eigenvalue GAMMA=   0.5700
  0.5700  0.5700

 Free energy of the ion-electron system (eV)
  ---------------------------------------------------
  alpha Z        PSCENC =       750.76466495
  Ewald energy   TEWEN  =    -12685.02294007
  -Hartree energ DENC   =     -8324.15573698
  -exchange      EXHF   =         0.00000000
  -V(xc)+E(xc)   XCENC  =      1119.38021928
  PAW double counting   =     18019.41438442   -18141.36779059
  entropy T*S    EENTRO =        -0.00000000
  eigenvalues    EBANDS =     -3251.24533330
  atomic energy  EATOM  =     22302.35321627
  Solvation  Ediel_sol  =         0.00000000
  ---------------------------------------------------
  free energy    TOTEN  =      -209.87931602 eV

  energy without entropy =     -209.87931602  energy(sigma->0) =     -209.87931602


--------------------------------------------------------------------------------------------------------




--------------------------------------- Iteration      1(   4)  ---------------------------------------


    POTLOK:  cpu time    0.1380: real time    0.1603
    SETDIJ:  cpu time    0.8419: real time    0.8397
     EDDAV:  cpu time   18.4882: real time   18.5142
       DOS:  cpu time    0.0030: real time    0.0034
    --------------------------------------------
      LOOP:  cpu time   19.4710: real time   19.5176

 eigenvalue-minimisations  : 10608
 total energy-change (2. order) :-0.3556488E-07  (-0.3739311E-07)
 number of electron     240.0000005 magnetization      -0.0000000
 augmentation part       61.9963001 magnetization      -0.0000000

 Free energy of the ion-electron system (eV)
  ---------------------------------------------------
  alpha Z        PSCENC =       750.76466495
  Ewald energy   TEWEN  =    -12685.02294007
  -Hartree energ DENC   =     -8324.15208403
  -exchange      EXHF   =         0.00000000
  -V(xc)+E(xc)   XCENC  =      1119.38001483
  PAW double counting   =     18019.41395686   -18141.36751947
  entropy T*S    EENTRO =        -0.00000000
  eigenvalues    EBANDS =     -3251.24862539
  atomic energy  EATOM  =     22302.35321627
  Solvation  Ediel_sol  =         0.00000000
  ---------------------------------------------------
  free energy    TOTEN  =      -209.87931606 eV

  energy without entropy =     -209.87931606  energy(sigma->0) =     -209.87931606


--------------------------------------------------------------------------------------------------------




 average (electrostatic) potential at core
  the test charge radii are     1.0397  0.7215  0.7167
  (the norm of the test charge is              1.0000)
       1 -59.3745       2 -61.1551       3 -58.1239       4 -57.8427       5 -59.0768
       6 -59.1755       7 -57.9073       8 -57.7458       9 -73.1254      10 -74.5826
      11 -74.2774      12 -74.4116      13 -72.6966      14 -72.6938      15 -72.4748
      16 -72.4776      17 -79.9139      18 -80.6044      19 -78.5254      20 -77.4571
      21 -79.9099      22 -80.5925      23 -78.4919      24 -78.6819      25 -80.3790
      26 -80.3720      27 -78.4759      28 -78.3873      29 -81.0272      30 -81.0273
      31 -80.2133      32 -80.2133
 
 
 
 E-fermi :   0.5887     XC(G=0):  -8.9346     alpha+bet : -7.5760


 spin component 1

 k-point     1 :       0.1250    0.1250    0.1250
  band No.  band energies     occupation 
      1     -37.1409      1.00000
      2     -37.0729      1.00000
      3     -37.0377      1.00000
      4     -35.5232      1.00000
      5     -35.4667      1.00000
      6     -35.3557      1.00000
      7     -35.3040      1.00000
      8     -35.1727      1.00000
      9     -35.1712      1.00000
     10     -35.1648      1.00000
     11     -34.9682      1.00000
     12     -34.8689      1.00000
     13     -34.1444      1.00000
     14     -34.1124      1.00000
     15     -34.0100      1.00000
     16     -33.9345      1.00000
     17     -33.8818      1.00000
     18     -33.7237      1.00000
     19     -33.7045      1.00000
     20     -33.6985      1.00000
     21     -33.5925      1.00000
     22     -33.5004      1.00000
     23     -33.4803      1.00000
     24     -33.3587      1.00000
     25     -24.9800      1.00000
     26     -24.4643      1.00000
     27     -24.3569      1.00000
     28     -24.1911      1.00000
     29     -24.1225      1.00000
     30     -23.9931      1.00000
     31     -23.7341      1.00000
     32     -23.6664      1.00000
     33     -23.5700      1.00000
     34     -23.3482      1.00000
     35     -22.4123      1.00000
     36     -22.3051      1.00000
     37     -22.1425      1.00000
     38     -22.0446      1.00000
     39     -21.9287      1.00000
     40     -21.1002      1.00000
     41     -16.8588      1.00000
     42     -16.6622      1.00000
     43     -16.5709      1.00000
     44     -15.6882      1.00000
     45     -15.4870      1.00000
     46     -15.2887      1.00000
     47     -14.8327      1.00000
     48     -14.5969      1.00000
     49      -8.6432      1.00000
     50      -8.1012      1.00000
     51      -7.8160      1.00000
     52      -7.7502      1.00000
     53      -7.3004      1.00000
     54      -7.0376      1.00000
     55      -6.9970      1.00000
     56      -6.8336      1.00000
     57      -6.7554      1.00000
     58      -6.5083      1.00000
     59      -6.3989      1.00000
     60      -6.2592      1.00000
     61      -6.1490      1.00000
     62      -6.0585      1.00000
     63      -5.9087      1.00000
     64      -5.8462      1.00000
     65      -5.8276      1.00000
     66      -5.8109      1.00000
     67      -5.7403      1.00000
     68      -5.6053      1.00000
     69      -5.5333      1.00000
     70      -5.4706      1.00000
     71      -5.3425      1.00000
     72      -5.2754      1.00000
     73      -5.2330      1.00000
     74      -5.1089      1.00000
     75      -5.0496      1.00000
     76      -4.9302      1.00000
     77      -4.9219      1.00000
     78      -4.8985      1.00000
     79      -4.7915      1.00000
     80      -4.6916      1.00000
     81      -4.6284      1.00000
     82      -4.5265      1.00000
     83      -4.4964      1.00000
     84      -4.2601      1.00000
     85      -4.1009      1.00000
     86      -4.0237      1.00000
     87      -3.8633      1.00000
     88      -3.7280      1.00000
     89      -3.6547      1.00000
     90      -3.5845      1.00000
     91      -3.5431      1.00000
     92      -3.5364      1.00000
     93      -3.4707      1.00000
     94      -3.3494      1.00000
     95      -3.2924      1.00000
     96      -3.2575      1.00000
     97      -3.1682      1.00000
     98      -2.9461      1.00000
     99      -2.8414      1.00000
    100      -2.7573      1.00000
    101      -2.7306      1.00000
    102      -2.6591      1.00000
    103      -2.5200      1.00000
    104      -2.5038      1.00000
    105      -2.2944      1.00000
    106      -2.2015      1.00000
    107      -2.0848      1.00000
    108      -1.8469      1.00000
    109      -1.5968      1.00000
    110      -1.1894      1.00000
    111      -0.9562      1.00000
    112      -0.9233      1.00000
    113      -0.7636      1.00000
    114      -0.4912      1.00000
    115      -0.4002      1.00000
    116      -0.3402      1.00000
    117      -0.2849      1.00000
    118      -0.0193      1.00000
    119       0.1834      1.00000
    120       0.4603      1.00000
    121       0.6711      0.00000
    122       0.9127      0.00000
    123       0.9428      0.00000
    124       1.8685      0.00000
    125       1.9126      0.00000
    126       2.1880      0.00000
    127       2.1986      0.00000
    128       2.3204      0.00000
    129       2.3428      0.00000
    130       2.5164      0.00000
    131       2.5923      0.00000
    132       2.8337      0.00000
    133       2.8954      0.00000
    134       2.9689      0.00000
    135       3.0157      0.00000
    136       3.2855      0.00000
    137       3.3223      0.00000
    138       3.3640      0.00000
    139       3.4665      0.00000
    140       3.5643      0.00000
    141       3.7224      0.00000
    142       3.7349      0.00000
    143       4.0012      0.00000
    144       4.0183      0.00000
    145       4.1158      0.00000
    146       4.2428      0.00000
    147       4.4088      0.00000
    148       4.5184      0.00000
    149       4.6853      0.00000
    150       4.7464      0.00000
    151       4.7929      0.00000
    152       4.9223      0.00000
    153       4.9679      0.00000
    154       5.1847      0.00000
    155       5.2373      0.00000
    156       5.5994      0.00000
    157       6.1308      0.00000
    158       6.3803      0.00000
    159       6.4644      0.00000
    160       7.0452      0.00000

 k-point     2 :       0.3750    0.1250    0.1250
  band No.  band energies     occupation 
      1     -37.1409      1.00000
      2     -37.0722      1.00000
      3     -37.0377      1.00000
      4     -35.5232      1.00000
      5     -35.4610      1.00000
      6     -35.3557      1.00000
      7     -35.3054      1.00000
      8     -35.1787      1.00000
      9     -35.1727      1.00000
     10     -35.1638      1.00000
     11     -34.9682      1.00000
     12     -34.8688      1.00000
     13     -34.1354      1.00000
     14     -34.1124      1.00000
     15     -34.0100      1.00000
     16     -33.9442      1.00000
     17     -33.8818      1.00000
     18     -33.7237      1.00000
     19     -33.6988      1.00000
     20     -33.6966      1.00000
     21     -33.6004      1.00000
     22     -33.5004      1.00000
     23     -33.4803      1.00000
     24     -33.3587      1.00000
     25     -24.9756      1.00000
     26     -24.3852      1.00000
     27     -24.3447      1.00000
     28     -24.2101      1.00000
     29     -24.1418      1.00000
     30     -24.0499      1.00000
     31     -23.6664      1.00000
     32     -23.6315      1.00000
     33     -23.5698      1.00000
     34     -23.4623      1.00000
     35     -22.3683      1.00000
     36     -22.2317      1.00000
     37     -22.1421      1.00000
     38     -22.0792      1.00000
     39     -22.0158      1.00000
     40     -21.0952      1.00000
     41     -16.8586      1.00000
     42     -16.6628      1.00000
     43     -16.5707      1.00000
     44     -15.7034      1.00000
     45     -15.4893      1.00000
     46     -15.2860      1.00000
     47     -14.8320      1.00000
     48     -14.5976      1.00000
     49      -8.6411      1.00000
     50      -7.8397      1.00000
     51      -7.8061      1.00000
     52      -7.6911      1.00000
     53      -7.0755      1.00000
     54      -7.0096      1.00000
     55      -6.9661      1.00000
     56      -6.9093      1.00000
     57      -6.8333      1.00000
     58      -6.4632      1.00000
     59      -6.4524      1.00000
     60      -6.3983      1.00000
     61      -6.2741      1.00000
     62      -6.1875      1.00000
     63      -5.9926      1.00000
     64      -5.8117      1.00000
     65      -5.8001      1.00000
     66      -5.7453      1.00000
     67      -5.6429      1.00000
     68      -5.5702      1.00000
     69      -5.5003      1.00000
     70      -5.4621      1.00000
     71      -5.3068      1.00000
     72      -5.2654      1.00000
     73      -5.1540      1.00000
     74      -5.1181      1.00000
     75      -5.0857      1.00000
     76      -4.9959      1.00000
     77      -4.9585      1.00000
     78      -4.9348      1.00000
     79      -4.9059      1.00000
     80      -4.8610      1.00000
     81      -4.6653      1.00000
     82      -4.6444      1.00000
     83      -4.3757      1.00000
     84      -4.1967      1.00000
     85      -4.0586      1.00000
     86      -3.9798      1.00000
     87      -3.8671      1.00000
     88      -3.7284      1.00000
     89      -3.6543      1.00000
     90      -3.5780      1.00000
     91      -3.5340      1.00000
     92      -3.4865      1.00000
     93      -3.4486      1.00000
     94      -3.3365      1.00000
     95      -3.2710      1.00000
     96      -3.2409      1.00000
     97      -3.1739      1.00000
     98      -3.0149      1.00000
     99      -2.9272      1.00000
    100      -2.8818      1.00000
    101      -2.7542      1.00000
    102      -2.6462      1.00000
    103      -2.5567      1.00000
    104      -2.4897      1.00000
    105      -2.3241      1.00000
    106      -2.1983      1.00000
    107      -2.1818      1.00000
    108      -2.0045      1.00000
    109      -1.8128      1.00000
    110      -1.2160      1.00000
    111      -0.9365      1.00000
    112      -0.8036      1.00000
    113      -0.5373      1.00000
    114      -0.4774      1.00000
    115      -0.4122      1.00000
    116      -0.3456      1.00000
    117      -0.2240      1.00000
    118      -0.0237      1.00000
    119       0.0295      1.00000
    120       0.3426      1.00000
    121       0.7547      0.00000
    122       0.9128      0.00000
    123       0.9791      0.00000
    124       1.8843      0.00000
    125       2.1286      0.00000
    126       2.1688      0.00000
    127       2.3421      0.00000
    128       2.3800      0.00000
    129       2.4477      0.00000
    130       2.5221      0.00000
    131       2.6966      0.00000
    132       2.7343      0.00000
    133       2.7453      0.00000
    134       3.1347      0.00000
    135       3.2352      0.00000
    136       3.3222      0.00000
    137       3.3251      0.00000
    138       3.5582      0.00000
    139       3.5707      0.00000
    140       3.6691      0.00000
    141       3.7303      0.00000
    142       3.7630      0.00000
    143       3.8138      0.00000
    144       3.9517      0.00000
    145       3.9935      0.00000
    146       4.1848      0.00000
    147       4.3617      0.00000
    148       4.6856      0.00000
    149       4.7101      0.00000
    150       4.7756      0.00000
    151       4.8486      0.00000
    152       4.9618      0.00000
    153       4.9696      0.00000
    154       5.1139      0.00000
    155       5.3488      0.00000
    156       5.6686      0.00000
    157       5.9033      0.00000
    158       6.2650      0.00000
    159       6.4955      0.00000
    160       7.0653      0.00000

 k-point     3 :      -0.3750    0.1250    0.1250
  band No.  band energies     occupation 
      1     -37.1409      1.00000
      2     -37.0722      1.00000
      3     -37.0377      1.00000
      4     -35.5232      1.00000
      5     -35.4610      1.00000
      6     -35.3557      1.00000
      7     -35.3054      1.00000
      8     -35.1787      1.00000
      9     -35.1727      1.00000
     10     -35.1638      1.00000
     11     -34.9682      1.00000
     12     -34.8688      1.00000
     13     -34.1354      1.00000
     14     -34.1124      1.00000
     15     -34.0100      1.00000
     16     -33.9442      1.00000
     17     -33.8818      1.00000
     18     -33.7237      1.00000
     19     -33.6988      1.00000
     20     -33.6966      1.00000
     21     -33.6004      1.00000
     22     -33.5004      1.00000
     23     -33.4803      1.00000
     24     -33.3587      1.00000
     25     -24.9756      1.00000
     26     -24.3852      1.00000
     27     -24.3447      1.00000
     28     -24.2101      1.00000
     29     -24.1418      1.00000
     30     -24.0499      1.00000
     31     -23.6664      1.00000
     32     -23.6315      1.00000
     33     -23.5698      1.00000
     34     -23.4623      1.00000
     35     -22.3683      1.00000
     36     -22.2317      1.00000
     37     -22.1421      1.00000
     38     -22.0791      1.00000
     39     -22.0158      1.00000
     40     -21.0952      1.00000
     41     -16.8586      1.00000
     42     -16.6628      1.00000
     43     -16.5707      1.00000
     44     -15.7034      1.00000
     45     -15.4894      1.00000
     46     -15.2859      1.00000
     47     -14.8320      1.00000
     48     -14.5976      1.00000
     49      -8.6411      1.00000
     50      -7.8401      1.00000
     51      -7.8058      1.00000
     52      -7.6909      1.00000
     53      -7.0756      1.00000
     54      -7.0096      1.00000
     55      -6.9660      1.00000
     56      -6.9093      1.00000
     57      -6.8333      1.00000
     58      -6.4633      1.00000
     59      -6.4523      1.00000
     60      -6.3972      1.00000
     61      -6.2741      1.00000
     62      -6.1875      1.00000
     63      -5.9921      1.00000
     64      -5.8116      1.00000
     65      -5.8022      1.00000
     66      -5.7471      1.00000
     67      -5.6455      1.00000
     68      -5.5697      1.00000
     69      -5.5003      1.00000
     70      -5.4585      1.00000
     71      -5.3068      1.00000
     72      -5.2657      1.00000
     73      -5.1542      1.00000
     74      -5.1172      1.00000
     75      -5.0864      1.00000
     76      -4.9996      1.00000
     77      -4.9567      1.00000
     78      -4.9332      1.00000
     79      -4.9050      1.00000
     80      -4.8606      1.00000
     81      -4.6647      1.00000
     82      -4.6438      1.00000
     83      -4.3757      1.00000
     84      -4.1953      1.00000
     85      -4.0536      1.00000
     86      -3.9860      1.00000
     87      -3.8657      1.00000
     88      -3.7318      1.00000
     89      -3.6520      1.00000
     90      -3.5758      1.00000
     91      -3.5331      1.00000
     92      -3.4920      1.00000
     93      -3.4450      1.00000
     94      -3.3369      1.00000
     95      -3.2750      1.00000
     96      -3.2407      1.00000
     97      -3.1766      1.00000
     98      -3.0078      1.00000
     99      -2.9327      1.00000
    100      -2.8789      1.00000
    101      -2.7571      1.00000
    102      -2.6447      1.00000
    103      -2.5704      1.00000
    104      -2.4872      1.00000
    105      -2.3262      1.00000
    106      -2.2008      1.00000
    107      -2.1607      1.00000
    108      -2.0019      1.00000
    109      -1.8130      1.00000
    110      -1.2239      1.00000
    111      -0.9366      1.00000
    112      -0.8030      1.00000
    113      -0.5373      1.00000
    114      -0.4776      1.00000
    115      -0.4119      1.00000
    116      -0.3457      1.00000
    117      -0.2234      1.00000
    118      -0.0239      1.00000
    119       0.0271      1.00000
    120       0.3440      1.00000
    121       0.7547      0.00000
    122       0.9128      0.00000
    123       0.9818      0.00000
    124       1.8843      0.00000
    125       2.1292      0.00000
    126       2.1688      0.00000
    127       2.3419      0.00000
    128       2.3802      0.00000
    129       2.4466      0.00000
    130       2.5218      0.00000
    131       2.6987      0.00000
    132       2.7335      0.00000
    133       2.7451      0.00000
    134       3.1347      0.00000
    135       3.2350      0.00000
    136       3.3211      0.00000
    137       3.3260      0.00000
    138       3.5463      0.00000
    139       3.5702      0.00000
    140       3.6689      0.00000
    141       3.7317      0.00000
    142       3.7653      0.00000
    143       3.8158      0.00000
    144       3.9538      0.00000
    145       3.9950      0.00000
    146       4.1934      0.00000
    147       4.3545      0.00000
    148       4.6846      0.00000
    149       4.7093      0.00000
    150       4.7741      0.00000
    151       4.8453      0.00000
    152       4.9643      0.00000
    153       4.9804      0.00000
    154       5.1138      0.00000
    155       5.3598      0.00000
    156       5.6376      0.00000
    157       5.9174      0.00000
    158       6.2669      0.00000
    159       6.4912      0.00000
    160       7.0649      0.00000

 k-point     4 :      -0.1250    0.1250    0.1250
  band No.  band energies     occupation 
      1     -37.1409      1.00000
      2     -37.0729      1.00000
      3     -37.0377      1.00000
      4     -35.5232      1.00000
      5     -35.4667      1.00000
      6     -35.3557      1.00000
      7     -35.3040      1.00000
      8     -35.1727      1.00000
      9     -35.1712      1.00000
     10     -35.1648      1.00000
     11     -34.9682      1.00000
     12     -34.8689      1.00000
     13     -34.1444      1.00000
     14     -34.1124      1.00000
     15     -34.0100      1.00000
     16     -33.9345      1.00000
     17     -33.8818      1.00000
     18     -33.7237      1.00000
     19     -33.7045      1.00000
     20     -33.6985      1.00000
     21     -33.5925      1.00000
     22     -33.5004      1.00000
     23     -33.4803      1.00000
     24     -33.3587      1.00000
     25     -24.9800      1.00000
     26     -24.4643      1.00000
     27     -24.3569      1.00000
     28     -24.1911      1.00000
     29     -24.1225      1.00000
     30     -23.9931      1.00000
     31     -23.7341      1.00000
     32     -23.6664      1.00000
     33     -23.5700      1.00000
     34     -23.3482      1.00000
     35     -22.4123      1.00000
     36     -22.3051      1.00000
     37     -22.1425      1.00000
     38     -22.0445      1.00000
     39     -21.9287      1.00000
     40     -21.1002      1.00000
     41     -16.8588      1.00000
     42     -16.6622      1.00000
     43     -16.5709      1.00000
     44     -15.6882      1.00000
     45     -15.4870      1.00000
     46     -15.2887      1.00000
     47     -14.8327      1.00000
     48     -14.5969      1.00000
     49      -8.6432      1.00000
     50      -8.1013      1.00000
     51      -7.8160      1.00000
     52      -7.7501      1.00000
     53      -7.3004      1.00000
     54      -7.0376      1.00000
     55      -6.9970      1.00000
     56      -6.8336      1.00000
     57      -6.7554      1.00000
     58      -6.5081      1.00000
     59      -6.3983      1.00000
     60      -6.2591      1.00000
     61      -6.1489      1.00000
     62      -6.0583      1.00000
     63      -5.9081      1.00000
     64      -5.8462      1.00000
     65      -5.8279      1.00000
     66      -5.8138      1.00000
     67      -5.7403      1.00000
     68      -5.6056      1.00000
     69      -5.5335      1.00000
     70      -5.4708      1.00000
     71      -5.3424      1.00000
     72      -5.2768      1.00000
     73      -5.2327      1.00000
     74      -5.1083      1.00000
     75      -5.0497      1.00000
     76      -4.9308      1.00000
     77      -4.9202      1.00000
     78      -4.8953      1.00000
     79      -4.7898      1.00000
     80      -4.6917      1.00000
     81      -4.6294      1.00000
     82      -4.5284      1.00000
     83      -4.4950      1.00000
     84      -4.2601      1.00000
     85      -4.0986      1.00000
     86      -4.0235      1.00000
     87      -3.8684      1.00000
     88      -3.7286      1.00000
     89      -3.6542      1.00000
     90      -3.5798      1.00000
     91      -3.5437      1.00000
     92      -3.5346      1.00000
     93      -3.4728      1.00000
     94      -3.3484      1.00000
     95      -3.2926      1.00000
     96      -3.2596      1.00000
     97      -3.1700      1.00000
     98      -2.9434      1.00000
     99      -2.8435      1.00000
    100      -2.7632      1.00000
    101      -2.7355      1.00000
    102      -2.6559      1.00000
    103      -2.5249      1.00000
    104      -2.4979      1.00000
    105      -2.2969      1.00000
    106      -2.2033      1.00000
    107      -2.0683      1.00000
    108      -1.8458      1.00000
    109      -1.5969      1.00000
    110      -1.1973      1.00000
    111      -0.9563      1.00000
    112      -0.9223      1.00000
    113      -0.7639      1.00000
    114      -0.4913      1.00000
    115      -0.4000      1.00000
    116      -0.3402      1.00000
    117      -0.2854      1.00000
    118      -0.0195      1.00000
    119       0.1822      1.00000
    120       0.4614      1.00000
    121       0.6711      0.00000
    122       0.9127      0.00000
    123       0.9453      0.00000
    124       1.8685      0.00000
    125       1.9134      0.00000
    126       2.1882      0.00000
    127       2.1988      0.00000
    128       2.3202      0.00000
    129       2.3434      0.00000
    130       2.5165      0.00000
    131       2.5906      0.00000
    132       2.8337      0.00000
    133       2.8946      0.00000
    134       2.9680      0.00000
    135       3.0151      0.00000
    136       3.2862      0.00000
    137       3.3222      0.00000
    138       3.3655      0.00000
    139       3.4618      0.00000
    140       3.5644      0.00000
    141       3.7227      0.00000
    142       3.7349      0.00000
    143       4.0016      0.00000
    144       4.0204      0.00000
    145       4.1160      0.00000
    146       4.2351      0.00000
    147       4.4199      0.00000
    148       4.5180      0.00000
    149       4.6852      0.00000
    150       4.7456      0.00000
    151       4.7990      0.00000
    152       4.9197      0.00000
    153       4.9678      0.00000
    154       5.1832      0.00000
    155       5.2354      0.00000
    156       5.5985      0.00000
    157       6.1316      0.00000
    158       6.3748      0.00000
    159       6.4683      0.00000
    160       7.0431      0.00000

 k-point     5 :       0.1250    0.3750    0.1250
  band No.  band energies     occupation 
      1     -37.1409      1.00000
      2     -37.0729      1.00000
      3     -37.0373      1.00000
      4     -35.5232      1.00000
      5     -35.4667      1.00000
      6     -35.3557      1.00000
      7     -35.3040      1.00000
      8     -35.1727      1.00000
      9     -35.1711      1.00000
     10     -35.1641      1.00000
     11     -34.9675      1.00000
     12     -34.8680      1.00000
     13     -34.1444      1.00000
     14     -34.1136      1.00000
     15     -34.0114      1.00000
     16     -33.9345      1.00000
     17     -33.8831      1.00000
     18     -33.7248      1.00000
     19     -33.7045      1.00000
     20     -33.6985      1.00000
     21     -33.5925      1.00000
     22     -33.5004      1.00000
     23     -33.4803      1.00000
     24     -33.3587      1.00000
     25     -24.9781      1.00000
     26     -24.4590      1.00000
     27     -24.3569      1.00000
     28     -24.1458      1.00000
     29     -24.0852      1.00000
     30     -23.9928      1.00000
     31     -23.7620      1.00000
     32     -23.7339      1.00000
     33     -23.5700      1.00000
     34     -23.3482      1.00000
     35     -22.4081      1.00000
     36     -22.3025      1.00000
     37     -22.1367      1.00000
     38     -22.0401      1.00000
     39     -21.9287      1.00000
     40     -21.1001      1.00000
     41     -16.8780      1.00000
     42     -16.6827      1.00000
     43     -16.5894      1.00000
     44     -15.6863      1.00000
     45     -15.4852      1.00000
     46     -15.2869      1.00000
     47     -14.8328      1.00000
     48     -14.5969      1.00000
     49      -8.6428      1.00000
     50      -8.1003      1.00000
     51      -7.7518      1.00000
     52      -7.5183      1.00000
     53      -7.3002      1.00000
     54      -7.0375      1.00000
     55      -6.9982      1.00000
     56      -6.8052      1.00000
     57      -6.7571      1.00000
     58      -6.6497      1.00000
     59      -6.4602      1.00000
     60      -6.2572      1.00000
     61      -6.1479      1.00000
     62      -5.9872      1.00000
     63      -5.9047      1.00000
     64      -5.8469      1.00000
     65      -5.8281      1.00000
     66      -5.7164      1.00000
     67      -5.6684      1.00000
     68      -5.4479      1.00000
     69      -5.4287      1.00000
     70      -5.3660      1.00000
     71      -5.3437      1.00000
     72      -5.2825      1.00000
     73      -5.1862      1.00000
     74      -5.1477      1.00000
     75      -5.1264      1.00000
     76      -4.9293      1.00000
     77      -4.8730      1.00000
     78      -4.8089      1.00000
     79      -4.7417      1.00000
     80      -4.6906      1.00000
     81      -4.6052      1.00000
     82      -4.5121      1.00000
     83      -4.4898      1.00000
     84      -4.2802      1.00000
     85      -4.2576      1.00000
     86      -4.0243      1.00000
     87      -3.9683      1.00000
     88      -3.7369      1.00000
     89      -3.7073      1.00000
     90      -3.6857      1.00000
     91      -3.6157      1.00000
     92      -3.5865      1.00000
     93      -3.5158      1.00000
     94      -3.4678      1.00000
     95      -3.3899      1.00000
     96      -3.3217      1.00000
     97      -3.2406      1.00000
     98      -3.0999      1.00000
     99      -3.0584      1.00000
    100      -2.8045      1.00000
    101      -2.7818      1.00000
    102      -2.7280      1.00000
    103      -2.6585      1.00000
    104      -2.3111      1.00000
    105      -2.2994      1.00000
    106      -2.1340      1.00000
    107      -2.0136      1.00000
    108      -1.9924      1.00000
    109      -1.6086      1.00000
    110      -1.1696      1.00000
    111      -0.9560      1.00000
    112      -0.8682      1.00000
    113      -0.7841      1.00000
    114      -0.4780      1.00000
    115      -0.4235      1.00000
    116      -0.3621      1.00000
    117      -0.2917      1.00000
    118      -0.0487      1.00000
    119       0.1790      1.00000
    120       0.4597      1.00000
    121       0.6711      0.00000
    122       0.9630      0.00000
    123       0.9772      0.00000
    124       1.8688      0.00000
    125       1.9173      0.00000
    126       2.1932      0.00000
    127       2.4592      0.00000
    128       2.4979      0.00000
    129       2.6045      0.00000
    130       2.6289      0.00000
    131       2.6945      0.00000
    132       2.8337      0.00000
    133       2.8870      0.00000
    134       3.0101      0.00000
    135       3.0209      0.00000
    136       3.1133      0.00000
    137       3.1955      0.00000
    138       3.3378      0.00000
    139       3.4630      0.00000
    140       3.5728      0.00000
    141       3.6644      0.00000
    142       3.9665      0.00000
    143       4.0009      0.00000
    144       4.0990      0.00000
    145       4.2947      0.00000
    146       4.4500      0.00000
    147       4.4836      0.00000
    148       4.6030      0.00000
    149       4.6590      0.00000
    150       4.7532      0.00000
    151       4.8258      0.00000
    152       4.9165      0.00000
    153       4.9816      0.00000
    154       5.1914      0.00000
    155       5.3198      0.00000
    156       5.5924      0.00000
    157       5.9932      0.00000
    158       6.2225      0.00000
    159       6.3693      0.00000
    160       6.8253      0.00000

 k-point     6 :       0.3750    0.3750    0.1250
  band No.  band energies     occupation 
      1     -37.1409      1.00000
      2     -37.0722      1.00000
      3     -37.0373      1.00000
      4     -35.5232      1.00000
      5     -35.4610      1.00000
      6     -35.3557      1.00000
      7     -35.3054      1.00000
      8     -35.1786      1.00000
      9     -35.1727      1.00000
     10     -35.1630      1.00000
     11     -34.9675      1.00000
     12     -34.8679      1.00000
     13     -34.1354      1.00000
     14     -34.1136      1.00000
     15     -34.0114      1.00000
     16     -33.9442      1.00000
     17     -33.8831      1.00000
     18     -33.7248      1.00000
     19     -33.6988      1.00000
     20     -33.6966      1.00000
     21     -33.6004      1.00000
     22     -33.5004      1.00000
     23     -33.4803      1.00000
     24     -33.3587      1.00000
     25     -24.9737      1.00000
     26     -24.3776      1.00000
     27     -24.3413      1.00000
     28     -24.1946      1.00000
     29     -24.0814      1.00000
     30     -24.0485      1.00000
     31     -23.7619      1.00000
     32     -23.6314      1.00000
     33     -23.5698      1.00000
     34     -23.4623      1.00000
     35     -22.3619      1.00000
     36     -22.2309      1.00000
     37     -22.1363      1.00000
     38     -22.0768      1.00000
     39     -22.0142      1.00000
     40     -21.0952      1.00000
     41     -16.8778      1.00000
     42     -16.6833      1.00000
     43     -16.5892      1.00000
     44     -15.7014      1.00000
     45     -15.4876      1.00000
     46     -15.2841      1.00000
     47     -14.8321      1.00000
     48     -14.5976      1.00000
     49      -8.6408      1.00000
     50      -7.8255      1.00000
     51      -7.7011      1.00000
     52      -7.5143      1.00000
     53      -7.0764      1.00000
     54      -7.0105      1.00000
     55      -6.9665      1.00000
     56      -6.9094      1.00000
     57      -6.8050      1.00000
     58      -6.6522      1.00000
     59      -6.4602      1.00000
     60      -6.4097      1.00000
     61      -6.2720      1.00000
     62      -6.1881      1.00000
     63      -5.9265      1.00000
     64      -5.8079      1.00000
     65      -5.7136      1.00000
     66      -5.6571      1.00000
     67      -5.5791      1.00000
     68      -5.5030      1.00000
     69      -5.4037      1.00000
     70      -5.3474      1.00000
     71      -5.2854      1.00000
     72      -5.2185      1.00000
     73      -5.2050      1.00000
     74      -5.1596      1.00000
     75      -5.1101      1.00000
     76      -4.9925      1.00000
     77      -4.9524      1.00000
     78      -4.8744      1.00000
     79      -4.8219      1.00000
     80      -4.7520      1.00000
     81      -4.6546      1.00000
     82      -4.6335      1.00000
     83      -4.3763      1.00000
     84      -4.1968      1.00000
     85      -4.1692      1.00000
     86      -4.0380      1.00000
     87      -3.8677      1.00000
     88      -3.7367      1.00000
     89      -3.7053      1.00000
     90      -3.6911      1.00000
     91      -3.6213      1.00000
     92      -3.5959      1.00000
     93      -3.5364      1.00000
     94      -3.5274      1.00000
     95      -3.4841      1.00000
     96      -3.4359      1.00000
     97      -3.1639      1.00000
     98      -3.1015      1.00000
     99      -2.9994      1.00000
    100      -2.8908      1.00000
    101      -2.8163      1.00000
    102      -2.7370      1.00000
    103      -2.6514      1.00000
    104      -2.6072      1.00000
    105      -2.2375      1.00000
    106      -2.1811      1.00000
    107      -2.0336      1.00000
    108      -2.0122      1.00000
    109      -1.8229      1.00000
    110      -1.1549      1.00000
    111      -0.8757      1.00000
    112      -0.8260      1.00000
    113      -0.5411      1.00000
    114      -0.4762      1.00000
    115      -0.4263      1.00000
    116      -0.3673      1.00000
    117      -0.2306      1.00000
    118      -0.0547      1.00000
    119       0.0233      1.00000
    120       0.3407      1.00000
    121       0.7546      0.00000
    122       0.9631      0.00000
    123       0.9829      0.00000
    124       1.8845      0.00000
    125       2.1507      0.00000
    126       2.1710      0.00000
    127       2.5490      0.00000
    128       2.5603      0.00000
    129       2.6299      0.00000
    130       2.6465      0.00000
    131       2.7417      0.00000
    132       2.8288      0.00000
    133       2.8649      0.00000
    134       3.0966      0.00000
    135       3.1872      0.00000
    136       3.2100      0.00000
    137       3.2392      0.00000
    138       3.4891      0.00000
    139       3.5221      0.00000
    140       3.6569      0.00000
    141       3.7586      0.00000
    142       3.8112      0.00000
    143       3.8457      0.00000
    144       4.1684      0.00000
    145       4.2700      0.00000
    146       4.4317      0.00000
    147       4.4955      0.00000
    148       4.6544      0.00000
    149       4.6889      0.00000
    150       4.7866      0.00000
    151       4.8935      0.00000
    152       4.9205      0.00000
    153       5.0072      0.00000
    154       5.1140      0.00000
    155       5.2862      0.00000
    156       5.4899      0.00000
    157       5.8102      0.00000
    158       6.0475      0.00000
    159       6.5995      0.00000
    160       7.0225      0.00000

 k-point     7 :      -0.3750    0.3750    0.1250
  band No.  band energies     occupation 
      1     -37.1409      1.00000
      2     -37.0722      1.00000
      3     -37.0373      1.00000
      4     -35.5232      1.00000
      5     -35.4610      1.00000
      6     -35.3557      1.00000
      7     -35.3054      1.00000
      8     -35.1786      1.00000
      9     -35.1727      1.00000
     10     -35.1630      1.00000
     11     -34.9675      1.00000
     12     -34.8679      1.00000
     13     -34.1354      1.00000
     14     -34.1136      1.00000
     15     -34.0114      1.00000
     16     -33.9442      1.00000
     17     -33.8831      1.00000
[...]
 -0.000  -0.000  -0.000   0.000  -0.000  -0.000   0.000   0.000   0.000  -0.000  -0.000   0.000  -0.000  -0.000   0.000   0.000
 -0.000   0.000   0.000   0.000  -0.000   0.000  -0.000   0.000   0.000  -0.000   0.000   0.000  -0.000  -0.000  -0.000  -0.000
 -0.000  -0.000   0.000   0.000  -0.000  -0.000   0.000   0.000   0.000   0.000   0.000  -0.000   0.000  -0.000   0.000  -0.000
  0.000   0.000  -0.000  -0.000  -0.000  -0.000   0.000   0.000  -0.000  -0.000  -0.000   0.000  -0.000   0.000   0.000   0.000
 -0.000   0.000  -0.000   0.000   0.000  -0.000  -0.000  -0.000  -0.000  -0.000  -0.000  -0.000   0.000   0.000   0.000   0.000
  0.000  -0.000   0.000  -0.000  -0.000   0.000  -0.000   0.000  -0.000   0.000  -0.000   0.000   0.000   0.000  -0.000   0.000
  0.000  -0.000  -0.000  -0.000   0.000  -0.000   0.000  -0.000  -0.000   0.000  -0.000  -0.000   0.000   0.000   0.000   0.000
 -0.000   0.000   0.000   0.000  -0.000   0.000   0.000  -0.000   0.000  -0.000   0.000  -0.000   0.000  -0.000   0.000   0.000
 -0.000   0.000  -0.000  -0.000  -0.000  -0.000  -0.000  -0.000   0.000  -0.000   0.000   0.000  -0.000  -0.000   0.000  -0.000


------------------------ aborting loop because EDIFF is reached ----------------------------------------


 


 total charge     
 
# of ion       s       p       d       tot
------------------------------------------
    1        0.311   6.472   1.867   8.649
    2        0.326   6.516   1.733   8.575
    3        0.299   6.450   1.705   8.453
    4        0.299   6.436   1.761   8.496
    5        0.313   6.473   1.865   8.651
    6        0.308   6.472   1.883   8.663
    7        0.298   6.449   1.710   8.456
    8        0.301   6.431   1.683   8.415
    9        1.567   3.452   0.000   5.020
   10        1.577   3.436   0.000   5.013
   11        1.576   3.441   0.000   5.017
   12        1.578   3.432   0.000   5.010
   13        1.565   3.428   0.000   4.993
   14        1.565   3.428   0.000   4.993
   15        1.566   3.426   0.000   4.991
   16        1.566   3.425   0.000   4.991
   17        1.729   4.388   0.000   6.116
   18        1.730   4.383   0.000   6.113
   19        1.730   4.386   0.000   6.116
   20        1.728   4.361   0.000   6.088
   21        1.729   4.388   0.000   6.117
   22        1.730   4.382   0.000   6.112
   23        1.730   4.385   0.000   6.114
   24        1.729   4.374   0.000   6.103
   25        1.734   4.376   0.000   6.111
   26        1.734   4.374   0.000   6.108
   27        1.729   4.373   0.000   6.102
   28        1.728   4.373   0.000   6.101
   29        1.733   4.400   0.000   6.133
   30        1.733   4.400   0.000   6.133
   31        1.732   4.406   0.000   6.137
   32        1.732   4.406   0.000   6.137
--------------------------------------------------
tot         42.702 149.321  14.207 206.230
 


 magnetization (x)
 
# of ion       s       p       d       tot
------------------------------------------
    1       -0.000  -0.000  -0.000  -0.000
    2       -0.000   0.000  -0.000  -0.000
    3       -0.000  -0.000  -0.000  -0.000
    4       -0.000  -0.000   0.000   0.000
    5       -0.000   0.000   0.000  -0.000
    6       -0.000  -0.000   0.000   0.000
    7        0.000   0.000  -0.000  -0.000
    8        0.000   0.000  -0.000  -0.000
    9        0.000  -0.000   0.000   0.000
   10       -0.000   0.000   0.000   0.000
   11        0.000  -0.000   0.000  -0.000
   12        0.000  -0.000   0.000  -0.000
   13        0.000  -0.000   0.000   0.000
   14       -0.000   0.000   0.000   0.000
   15        0.000   0.000   0.000   0.000
   16        0.000   0.000   0.000   0.000
   17        0.000   0.000   0.000   0.000
   18        0.000  -0.000   0.000   0.000
   19        0.000   0.000   0.000   0.000
   20       -0.000   0.000   0.000   0.000
   21        0.000   0.000   0.000   0.000
   22        0.000  -0.000   0.000   0.000
   23        0.000  -0.000   0.000   0.000
   24        0.000   0.000   0.000   0.000
   25       -0.000   0.000   0.000   0.000
   26       -0.000  -0.000   0.000  -0.000
   27       -0.000  -0.000   0.000  -0.000
   28        0.000  -0.000   0.000  -0.000
   29       -0.000  -0.000   0.000  -0.000
   30        0.000  -0.000   0.000  -0.000
   31        0.000  -0.000   0.000   0.000
   32        0.000   0.000   0.000   0.000
--------------------------------------------------
tot          0.000   0.000  -0.000   0.000
 
    CHARGE:  cpu time    1.1568: real time    1.1549
    FORLOC:  cpu time    0.0140: real time    0.0131
    FORNL :  cpu time    6.8090: real time    6.7982
    STRESS:  cpu time   20.7538: real time   20.7324
    FORCOR:  cpu time    0.1310: real time    0.1302
    FORHAR:  cpu time    0.1630: real time    0.1636
    MIXING:  cpu time    0.1670: real time    0.1670
    OFIELD:  cpu time    0.0000: real time    0.0000

  FORCE on cell =-STRESS in cart. coord.  units (eV):
  Direction    XX          YY          ZZ          XY          YZ          ZX
  --------------------------------------------------------------------------------------
  Alpha Z   750.76466   750.76466   750.76466
  Ewald   -4257.98534 -4378.60675 -4048.48849    -0.81753    -0.03065     0.52137
  Hartree  2771.77019  2651.07385  2901.30379    -0.21574    -0.00927     0.21528
  E(xc)   -1231.74343 -1232.13868 -1232.00136    -0.00091     0.00008    -0.00050
  Local   -2158.38129 -1943.31369 -2540.99331     1.04203     0.04467    -0.74676
  n-local  -972.01233  -970.98830  -963.59002    -0.08582    -0.00084     0.00901
  augment   746.55458   759.04312   762.33471    -0.02660    -0.00237     0.01191
  Kinetic  4351.02002  4364.12328  4370.64811     0.10526    -0.00032    -0.01657
  Fock        0.00000     0.00000     0.00000     0.00000     0.00000     0.00000
  -------------------------------------------------------------------------------------
  Total      -0.01294    -0.04251    -0.02191     0.00070     0.00130    -0.00626
  in kB      -0.04447    -0.14601    -0.07526     0.00240     0.00446    -0.02149
  external pressure =       -0.09 kB  Pullay stress =        0.00 kB


 VOLUME and BASIS-vectors are now :
 -----------------------------------------------------------------------------
  energy-cutoff  :      700.00
  volume of cell :      466.41
      direct lattice vectors                 reciprocal lattice vectors
     7.852604456 -0.001787074  0.000090538     0.127346291  0.000029619 -0.000001019
    -0.001812467  7.792538264 -0.000084090     0.000029205  0.128327898 -0.000001231
     0.000061003  0.000073115  7.622152558    -0.000001512  0.000001415  0.131196534

  length of vectors
     7.852604660  7.792538476  7.622152558     0.127346295  0.128327901  0.131196534


 FORCES acting on ions
    electron-ion (+dipol)            ewald-force                    non-local-force                 convergence-correction
 -----------------------------------------------------------------------------------------------
   -.565E+00 0.138E+02 0.268E-01   0.554E+00 -.131E+02 -.266E-01   0.113E-01 -.650E+00 -.335E-03   0.173E-03 0.560E-03 -.233E-04
   0.162E+01 0.128E+02 0.447E-02   -.162E+01 -.128E+02 -.445E-02   -.342E-02 -.359E-01 -.172E-03   0.229E-03 0.254E-03 0.135E-04
   0.396E+01 -.124E+02 0.582E+00   -.391E+01 0.132E+02 -.582E+00   -.467E-01 -.856E+00 0.418E-02   0.206E-03 -.509E-03 0.244E-04
   -.342E+01 -.168E+02 0.577E+00   0.232E+01 0.166E+02 -.558E+00   0.110E+01 0.216E+00 -.134E-01   0.698E-03 -.300E-03 0.114E-04
   0.763E+00 -.163E+01 -.931E-02   -.746E+00 0.107E+01 0.917E-02   -.152E-01 0.571E+00 0.125E-03   -.163E-03 0.119E-03 -.422E-04
   -.204E+01 0.941E+01 -.337E-01   0.201E+01 -.859E+01 0.336E-01   0.334E-01 -.823E+00 0.111E-03   -.242E-03 0.492E-03 0.823E-04
   -.485E+01 0.218E+00 -.657E+00   0.478E+01 -.117E+01 0.656E+00   0.675E-01 0.956E+00 -.579E-02   -.222E-03 -.180E-03 0.731E-05
   -.915E-01 -.963E+01 -.796E+00   0.122E+01 0.105E+02 0.777E+00   -.113E+01 -.887E+00 0.100E-01   -.684E-03 -.426E-03 0.195E-03
   0.309E+02 -.173E+01 0.633E-02   -.334E+02 0.150E+01 -.813E-02   0.248E+01 0.218E+00 0.185E-02   -.454E-04 -.681E-04 0.547E-04
   0.636E+00 0.115E+03 0.832E-01   -.668E+00 -.125E+03 -.924E-01   0.320E-01 0.105E+02 0.932E-02   0.131E-03 0.306E-03 -.308E-04
   -.886E+00 -.110E+03 -.119E+00   0.917E+00 0.120E+03 0.132E+00   -.288E-01 -.101E+02 -.135E-01   -.156E-03 -.405E-03 -.770E-05
   0.357E+01 0.128E+03 -.158E+00   -.405E+01 -.139E+03 0.172E+00   0.480E+00 0.113E+02 -.139E-01   -.280E-03 0.347E-03 0.108E-03
   -.882E+01 -.511E+01 -.160E+02   0.996E+01 0.501E+01 0.168E+02   -.114E+01 0.919E-01 -.812E+00   0.283E-03 -.222E-03 0.882E-04
   -.892E+01 -.517E+01 0.137E+02   0.101E+02 0.508E+01 -.142E+02   -.115E+01 0.876E-01 0.556E+00   0.294E-03 -.231E-03 0.327E-03
   0.573E+01 -.333E+01 -.222E+02   -.645E+01 0.346E+01 0.230E+02   0.712E+00 -.125E+00 -.824E+00   -.231E-03 -.239E-03 -.723E-03
   0.567E+01 -.331E+01 0.249E+02   -.638E+01 0.344E+01 -.260E+02   0.703E+00 -.124E+00 0.112E+01   -.202E-03 -.300E-03 -.775E-03
   -.122E+02 0.236E+01 -.114E-01   0.136E+02 -.220E+01 0.125E-01   -.142E+01 -.149E+00 -.102E-02   0.957E-04 0.215E-03 -.294E-04
   -.582E+02 -.204E+01 0.121E-01   0.647E+02 0.402E+01 -.138E-01   -.643E+01 -.199E+01 0.163E-02   -.451E-04 0.427E-03 0.369E-04
   -.726E+01 -.393E+01 0.445E-02   0.810E+01 0.399E+01 -.526E-02   -.837E+00 -.583E-01 0.117E-02   -.874E-05 -.522E-03 -.345E-04
   -.122E+02 -.447E+01 -.306E-01   0.120E+02 0.427E+01 0.332E-01   0.194E+00 0.196E+00 -.244E-02   -.639E-04 -.744E-04 0.747E-04
   0.121E+02 0.217E+01 0.241E-01   -.136E+02 -.201E+01 -.260E-01   0.144E+01 -.152E+00 0.177E-02   -.173E-03 0.204E-03 -.238E-04
   0.591E+02 -.418E+01 -.291E-01   -.656E+02 0.624E+01 0.313E-01   0.649E+01 -.206E+01 -.214E-02   0.985E-05 0.278E-03 0.477E-04
   0.753E+01 -.368E+01 -.919E-02   -.829E+01 0.373E+01 0.105E-01   0.755E+00 -.488E-01 -.998E-03   0.891E-04 -.490E-03 -.273E-04
   0.699E+00 -.617E+02 0.171E+00   -.724E+00 0.638E+02 -.194E+00   0.235E-01 -.204E+01 0.224E-01   0.193E-03 -.264E-03 -.190E-04
   -.835E+01 -.119E+03 0.121E+00   0.101E+02 0.131E+03 -.139E+00   -.172E+01 -.122E+02 0.182E-01   0.275E-03 -.247E-03 -.110E-04
   -.814E+01 0.123E+03 0.191E+00   0.970E+01 -.135E+03 -.218E+00   -.156E+01 0.123E+02 0.265E-01   0.378E-03 0.571E-03 -.172E-04
   0.410E+01 -.751E+02 -.195E+00   -.497E+01 0.780E+02 0.220E+00   0.867E+00 -.298E+01 -.238E-01   -.231E-03 -.380E-03 0.130E-03
   -.722E+00 0.580E+02 -.147E+00   0.749E+00 -.595E+02 0.168E+00   -.255E-01 0.155E+01 -.207E-01   -.195E-03 0.382E-03 -.320E-04
   0.942E+00 -.105E+02 0.429E+02   -.107E+01 0.141E+02 -.482E+02   0.133E+00 -.353E+01 0.526E+01   0.120E-03 0.291E-03 0.572E-04
   0.893E+00 -.104E+02 -.429E+02   -.102E+01 0.139E+02 0.482E+02   0.127E+00 -.352E+01 -.526E+01   0.116E-03 0.297E-03 -.185E-04
   -.815E+00 0.232E+01 0.197E+01   0.902E+00 -.229E+01 -.267E+01   -.849E-01 -.332E-01 0.698E+00   -.241E-03 0.218E-03 -.189E-03
   -.776E+00 0.235E+01 -.196E+01   0.859E+00 -.232E+01 0.266E+01   -.810E-01 -.320E-01 -.700E+00   -.235E-03 0.217E-03 0.894E-04
 -----------------------------------------------------------------------------------------------
   0.220E-01 0.443E+01 -.380E-01   -.126E-12 -.103E-12 0.107E-13   -.269E-01 -.442E+01 0.383E-01   -.127E-03 0.321E-03 -.655E-03
 
 
 POSITION                                       TOTAL-FORCE (eV/Angst)
 -----------------------------------------------------------------------------------
     -0.00028      7.62840      7.62203         0.000646      0.002605     -0.000191
      0.00568      0.01249      3.81101         0.000608     -0.003432     -0.000130
      0.00530      3.89248      0.00179        -0.000655      0.002043      0.004381
      7.71684      3.89497      3.81323        -0.002690     -0.005811      0.004909
      3.92808      0.19446      0.00016         0.001089      0.006330     -0.000048
      3.92609      7.61194      3.81115         0.001031     -0.003725      0.000148
      3.92347      3.91823      7.62016        -0.000978      0.003968     -0.006931
      4.00340      3.87449      3.80872        -0.001065     -0.001268     -0.008429
      5.90049      3.87025      3.81107         0.000987     -0.009065      0.000117
     -0.00055      5.91628      0.00005        -0.000497      0.000915      0.000048
      3.92859      1.90719      0.00011         0.001333      0.001384      0.000178
      3.92468      5.90751      3.81111         0.002127      0.001151      0.000304
      0.01511      3.89022      1.88768         0.000027     -0.000802     -0.000885
      0.01506      3.89055      5.73354        -0.000146     -0.000747     -0.001453
      3.90911      3.90659      1.88432        -0.002841      0.002758      0.003022
      3.90911      3.90674      5.73891        -0.002983      0.003326      0.003729
      1.95160      0.01497      0.00011         0.001048      0.003229      0.000048
      1.91191      0.00276      3.81103         0.000348     -0.006042     -0.000052
      1.95699      3.90982      7.62210        -0.000881      0.006465      0.000330
      1.93995      3.86696      3.81101        -0.001503     -0.007286      0.000164
      5.90452      0.01425      7.62217         0.000808      0.003320     -0.000068
      5.94915      0.00606      3.81125         0.001267     -0.001543      0.000033
      5.89741      3.90858      0.00005        -0.000560      0.006453      0.000255
      0.00117      1.84765      7.62183        -0.001311      0.001920     -0.000367
      0.01840      1.85608      3.81107         0.001339     -0.005716     -0.000233
      0.01284      5.95399      3.81067        -0.002965     -0.004428     -0.000294
      3.91489      1.82234      3.81131        -0.002023     -0.002099      0.000445
      3.92736      5.96361      0.00017         0.001733      0.004555      0.000624
      7.85163      0.04408      1.93970         0.001511     -0.000365      0.000275
      7.85185      0.04374      5.68251         0.001560     -0.000542     -0.000758
      3.93165      0.00533      1.91078         0.001899      0.001157      0.000327
      3.93152      0.00530      5.71166         0.001739      0.001291      0.000503
 -----------------------------------------------------------------------------------
    total drift:                               -0.004987      0.004241     -0.000398


--------------------------------------------------------------------------------------------------------



  FREE ENERGIE OF THE ION-ELECTRON SYSTEM (eV)
  ---------------------------------------------------
  free  energy   TOTEN  =      -209.87931606 eV

  energy  without entropy=     -209.87931606  energy(sigma->0) =     -209.87931606
 


--------------------------------------------------------------------------------------------------------


    POTLOK:  cpu time    1.0028: real time    1.0007


--------------------------------------------------------------------------------------------------------


 stress matrix after NEB project (eV)
     -0.01294      0.00070     -0.00626
      0.00070     -0.04251      0.00130
     -0.00626      0.00130     -0.02191
  FORCES: max atom, RMS     0.009119    0.004940
  FORCE total and by dimension    0.027943    0.009065
  Stress total and by dimension    0.050368    0.042506
 Quasi-Newton relaxation of ions (Broydens 2nd method)
  g(Force)  = 0.377E-04   g(Stress)= 0.382E-05

 Reset! Starting new Quasi-Newton update for ions 


--------------------------------------------------------------------------------------------------------


  
 reached required accuracy - stopping structural energy minimisation
 writing wavefunctions
     LOOP+:  cpu time  178.1649: real time  180.0213
    4ORBIT:  cpu time    0.0000: real time    0.0000
 


 total charge     
 
# of ion       s       p       d       tot
------------------------------------------
    1        0.311   6.472   1.867   8.649
    2        0.326   6.516   1.733   8.575
    3        0.299   6.450   1.705   8.453
    4        0.299   6.436   1.761   8.496
    5        0.313   6.473   1.865   8.651
    6        0.308   6.472   1.883   8.663
    7        0.298   6.449   1.710   8.456
    8        0.301   6.431   1.683   8.415
    9        1.567   3.452   0.000   5.020
   10        1.577   3.436   0.000   5.013
   11        1.576   3.441   0.000   5.017
   12        1.578   3.432   0.000   5.010
   13        1.565   3.428   0.000   4.993
   14        1.565   3.428   0.000   4.993
   15        1.566   3.426   0.000   4.991
   16        1.566   3.425   0.000   4.991
   17        1.729   4.388   0.000   6.116
   18        1.730   4.383   0.000   6.113
   19        1.730   4.386   0.000   6.116
   20        1.728   4.361   0.000   6.088
   21        1.729   4.388   0.000   6.117
   22        1.730   4.382   0.000   6.112
   23        1.730   4.385   0.000   6.114
   24        1.729   4.374   0.000   6.103
   25        1.734   4.376   0.000   6.111
   26        1.734   4.374   0.000   6.108
   27        1.729   4.373   0.000   6.102
   28        1.728   4.373   0.000   6.101
   29        1.733   4.400   0.000   6.133
   30        1.733   4.400   0.000   6.133
   31        1.732   4.406   0.000   6.137
   32        1.732   4.406   0.000   6.137
--------------------------------------------------
tot         42.702 149.321  14.207 206.230
 


 magnetization (x)
 
# of ion       s       p       d       tot
------------------------------------------
    1       -0.000  -0.000  -0.000  -0.000
    2       -0.000   0.000  -0.000  -0.000
    3       -0.000  -0.000  -0.000  -0.000
    4       -0.000  -0.000   0.000   0.000
    5       -0.000   0.000   0.000  -0.000
    6       -0.000  -0.000   0.000   0.000
    7        0.000   0.000  -0.000  -0.000
    8        0.000   0.000  -0.000  -0.000
    9        0.000  -0.000   0.000   0.000
   10       -0.000   0.000   0.000   0.000
   11        0.000  -0.000   0.000  -0.000
   12        0.000  -0.000   0.000  -0.000
   13        0.000  -0.000   0.000   0.000
   14       -0.000   0.000   0.000   0.000
   15        0.000   0.000   0.000   0.000
   16        0.000   0.000   0.000   0.000
   17        0.000   0.000   0.000   0.000
   18        0.000  -0.000   0.000   0.000
   19        0.000   0.000   0.000   0.000
   20       -0.000   0.000   0.000   0.000
   21        0.000   0.000   0.000   0.000
   22        0.000  -0.000   0.000   0.000
   23        0.000  -0.000   0.000   0.000
   24        0.000   0.000   0.000   0.000
   25       -0.000   0.000   0.000   0.000
   26       -0.000  -0.000   0.000  -0.000
   27       -0.000  -0.000   0.000  -0.000
   28        0.000  -0.000   0.000  -0.000
   29       -0.000  -0.000   0.000  -0.000
   30        0.000  -0.000   0.000  -0.000
   31        0.000  -0.000   0.000   0.000
   32        0.000   0.000   0.000   0.000
--------------------------------------------------
tot          0.000   0.000  -0.000   0.000
 

 total amount of memory used by VASP MPI-rank0   107607. kBytes
=======================================================================

   base      :      30000. kBytes
   nonlr-proj:       8503. kBytes
   fftplans  :       8424. kBytes
   grid      :       8783. kBytes
   one-center:        124. kBytes
   wavefun   :      51773. kBytes
 
  
  
 General timing and accounting informations for this job:
 ========================================================
  
                  Total CPU time used (sec):      228.382
                            User time (sec):      215.336
                          System time (sec):       13.046
                         Elapsed time (sec):      239.335
  
                   Maximum memory used (kb):      221376.
                   Average memory used (kb):           0.
  
                          Minor page faults:        96275
                          Major page faults:            2
                 Voluntary context switches:        68095
