 vasp.5.4.4.18Apr17-6-g9f103f2a35 (build Apr 30 2017 20:10:35) complex          
  
 executed on             LinuxIFC date 2017.08.02  18:40:34
 running on   64 total cores
 distrk:  each k-point on   64 cores,    1 groups
 distr:  one band on NCORES_PER_BAND=   8 cores,    8 groups


--------------------------------------------------------------------------------------------------------


 INCAR:
 POTCAR:   PAW_PBE Ti_pv 07Sep2000                
 POTCAR:   PAW_PBE O 08Apr2002                    
 POTCAR:    PAW_PBE F 08Apr2002                   
 POTCAR:   PAW_PBE Ti_pv 07Sep2000                
   VRHFIN =Ti: d3 s1                                                            
   LEXCH  = PE                                                                  
   EATOM  =  1042.3781 eV,   76.6126 Ry                                         
                                                                                
   TITEL  = PAW_PBE Ti_pv 07Sep2000                                             
   LULTRA =        F    use ultrasoft PP ?                                      
   IUNSCR =        1    unscreen: 0-lin 1-nonlin 2-no                           
   RPACOR =    2.200    partial core radius                                     
   POMASS =   47.880; ZVAL   =   10.000    mass and valenz                      
   RCORE  =    2.500    outmost cutoff radius                                   
   RWIGS  =    2.500; RWIGS  =    1.323    wigner-seitz radius (au A)           
   ENMAX  =  222.338; ENMIN  =  166.753 eV                                      
   RCLOC  =    1.701    cutoff for local pot                                    
   LCOR   =        T    correct aug charges                                     
   LPAW   =        T    paw PP                                                  
   EAUG   =  482.848                                                            
   DEXC   =    -.008                                                            
   RMAX   =    3.092    core radius for proj-oper                               
   RAUG   =    1.300    factor for augmentation sphere                          
   RDEP   =    2.538    radius for radial grids                                 
   QCUT   =   -4.042; QGAM   =    8.085    optimization parameters              
                                                                                
   Description                                                                  
     l     E      TYP  RCUT    TYP  RCUT                                        
     1   .000     23  2.300                                                     
     1  -.100     23  2.300                                                     
     2   .000     23  2.500                                                     
     2   .000     23  2.500                                                     
     0   .000     23  2.500                                                     
     0  1.500     23  2.500                                                     
     3   .000      7   .000                                                     
  local pseudopotential read in
  partial core-charges read in
  atomic valenz-charges read in
  non local Contribution for L=           1  read in
    real space projection operators read in
  non local Contribution for L=           1  read in
    real space projection operators read in
  non local Contribution for L=           2  read in
    real space projection operators read in
  non local Contribution for L=           2  read in
    real space projection operators read in
  non local Contribution for L=           0  read in
    real space projection operators read in
  non local Contribution for L=           0  read in
    real space projection operators read in
    PAW grid and wavefunctions read in
 
   number of l-projection  operators is LMAX  =           6
   number of lm-projection operators is LMMAX =          18
 
 POTCAR:   PAW_PBE O 08Apr2002                    
   VRHFIN =O: s2p4                                                              
   LEXCH  = PE                                                                  
   EATOM  =   432.3788 eV,   31.7789 Ry                                         
                                                                                
   TITEL  = PAW_PBE O 08Apr2002                                                 
   LULTRA =        F    use ultrasoft PP ?                                      
   IUNSCR =        0    unscreen: 0-lin 1-nonlin 2-no                           
   RPACOR =     .000    partial core radius                                     
   POMASS =   16.000; ZVAL   =    6.000    mass and valenz                      
   RCORE  =    1.520    outmost cutoff radius                                   
   RWIGS  =    1.550; RWIGS  =     .820    wigner-seitz radius (au A)           
   ENMAX  =  400.000; ENMIN  =  300.000 eV                                      
   ICORE  =        2    local potential                                         
   LCOR   =        T    correct aug charges                                     
   LPAW   =        T    paw PP                                                  
   EAUG   =  605.392                                                            
   DEXC   =     .000                                                            
   RMAX   =    2.264    core radius for proj-oper                               
   RAUG   =    1.300    factor for augmentation sphere                          
   RDEP   =    1.550    radius for radial grids                                 
   QCUT   =   -5.520; QGAM   =   11.041    optimization parameters              
                                                                                
   Description                                                                  
     l     E      TYP  RCUT    TYP  RCUT                                        
     0   .000     23  1.200                                                     
     0  -.700     23  1.200                                                     
     1   .000     23  1.520                                                     
     1   .600     23  1.520                                                     
     2   .000      7  1.500                                                     
  local pseudopotential read in
  atomic valenz-charges read in
  non local Contribution for L=           0  read in
    real space projection operators read in
  non local Contribution for L=           0  read in
    real space projection operators read in
  non local Contribution for L=           1  read in
    real space projection operators read in
  non local Contribution for L=           1  read in
    real space projection operators read in
    PAW grid and wavefunctions read in
 
   number of l-projection  operators is LMAX  =           4
   number of lm-projection operators is LMMAX =           8
 
 POTCAR:    PAW_PBE F 08Apr2002                   
   VRHFIN =F: s2p5                                                              
   LEXCH  = PE                                                                  
   EATOM  =   659.6475 eV,   48.4827 Ry                                         
                                                                                
   TITEL  = PAW_PBE F 08Apr2002                                                 
   LULTRA =        F    use ultrasoft PP ?                                      
   IUNSCR =        1    unscreen: 0-lin 1-nonlin 2-no                           
   RPACOR =    1.200    partial core radius                                     
   POMASS =   18.998; ZVAL   =    7.000    mass and valenz                      
   RCORE  =    1.520    outmost cutoff radius                                   
   RWIGS  =    1.500; RWIGS  =    0.794    wigner-seitz radius (au A)           
   ENMAX  =  400.000; ENMIN  =  300.000 eV                                      
   ICORE  =        2    local potential                                         
   LCOR   =        T    correct aug charges                                     
   LPAW   =        T    paw PP                                                  
   EAUG   =  613.614                                                            
   RMAX   =    1.555    core radius for proj-oper                               
   RAUG   =    1.300    factor for augmentation sphere                          
   RDEP   =    1.539    radius for radial grids                                 
   RDEPT  =    1.299    core radius for aug-charge                              
                                                                                
   Atomic configuration                                                         
    4 entries                                                                   
     n  l   j            E        occ.                                          
     1  0  0.50      -663.3661   2.0000                                         
     2  0  0.50       -29.8995   2.0000                                         
     2  1  0.50       -11.1114   5.0000                                         
     3  2  1.50       -10.8847   0.0000                                         
   Description                                                                  
     l       E           TYP  RCUT    TYP  RCUT                                 
     0    -29.8995018     23  1.200                                             
     0     -9.5240782     23  1.200                                             
     1    -11.1113914     23  1.520                                             
     1      1.3605826     23  1.520                                             
     2    -10.8846608      7  1.500                                             
  local pseudopotential read in
  partial core-charges read in
  partial kinetic energy density read in
  atomic valenz-charges read in
  non local Contribution for L=           0  read in
    real space projection operators read in
  non local Contribution for L=           0  read in
    real space projection operators read in
  non local Contribution for L=           1  read in
    real space projection operators read in
  non local Contribution for L=           1  read in
    real space projection operators read in
    PAW grid and wavefunctions read in
 
   number of l-projection  operators is LMAX  =           4
   number of lm-projection operators is LMMAX =           8
 
 Optimization of the real space projectors (new method)

 maximal supplied QI-value         = 15.12
 optimisation between [QCUT,QGAM] = [ 13.45, 27.06] = [ 50.69,205.06] Ry 
 Optimized for a Real-space Cutoff    1.49 Angstroem

   l    n(q)    QCUT    max X(q) W(low)/X(q) W(high)/X(q)  e(spline) 
   1     12    13.455     4.841    0.13E-05    0.83E-06    0.56E-07
   1     12    13.455     5.701    0.32E-04    0.25E-04    0.17E-06
   2     11    13.455     4.569    0.64E-05    0.34E-05    0.50E-07
   2     11    13.455    32.276    0.49E-04    0.38E-04    0.46E-06
   0     12    13.455    30.046    0.17E-04    0.41E-05    0.51E-07
   0     12    13.455    45.433    0.12E-04    0.27E-04    0.38E-06
 Optimization of the real space projectors (new method)

 maximal supplied QI-value         = 24.76
 optimisation between [QCUT,QGAM] = [ 13.37, 26.98] = [ 50.04,203.89] Ry 
 Optimized for a Real-space Cutoff    1.17 Angstroem

   l    n(q)    QCUT    max X(q) W(low)/X(q) W(high)/X(q)  e(spline) 
   0      9    13.368     4.192    0.20E-04    0.58E-05    0.56E-07
   0      9    13.368     8.473    0.60E-04    0.52E-04    0.21E-06
   1      9    13.368     2.474    0.22E-04    0.17E-04    0.28E-07
   1      9    13.368     3.912    0.94E-04    0.97E-04    0.20E-06
 Optimization of the real space projectors (new method)

 maximal supplied QI-value         = 24.76
 optimisation between [QCUT,QGAM] = [ 13.37, 26.98] = [ 50.04,203.89] Ry 
 Optimized for a Real-space Cutoff    1.17 Angstroem

   l    n(q)    QCUT    max X(q) W(low)/X(q) W(high)/X(q)  e(spline) 
   0      9    13.368    14.049    0.39E-04    0.34E-04    0.16E-06
   0      9    13.368     8.945    0.54E-04    0.47E-04    0.20E-06
   1      9    13.368     7.086    0.99E-04    0.10E-03    0.23E-06
   1      9    13.368     6.747    0.86E-04    0.89E-04    0.21E-06

 ----------------------------------------------------------------------------- 
|                                                                             |
|  ADVICE TO THIS USER RUNNING 'VASP/VAMP'   (HEAR YOUR MASTER'S VOICE ...):  |
|                                                                             |
|      You enforced a specific xc-type in the INCAR file,                     |
|      a different type was found on the POTCAR file                          |
|          I HOPE YOU KNOW, WHAT YOU ARE  DOING                               |
|                                                                             |
 ----------------------------------------------------------------------------- 

 PAW_PBE Ti_pv 07Sep2000                :
 energy of atom  1       EATOM=-1042.3781
 kinetic energy error for atom=    0.0006 (will be added to EATOM!!)
 PAW_PBE O 08Apr2002                    :
 energy of atom  2       EATOM= -432.3788
 kinetic energy error for atom=    0.0091 (will be added to EATOM!!)
  PAW_PBE F 08Apr2002                   :
 energy of atom  3       EATOM= -659.6475
 kinetic energy error for atom=    0.0140 (will be added to EATOM!!)
 
 
 POSCAR: TiOF2 2x2x2 config 0006                 
  positions in direct lattice
  velocities in cartesian coordinates
 exchange correlation table for  LEXCH =       14
   RHO(1)=    0.500       N(1)  =     2000
   RHO(2)=  100.500       N(2)  =     4000

 VTST: version 3.1, (03/28/14)

 CHAIN: initializing optimizer
 
 OPT: Using VASP QUASI-newton optimizer
 CHAIN: Read ICHAIN            0
 
 POSCAR: TiOF2 2x2x2 config 0006                 
  positions in direct lattice
  velocities in cartesian coordinates
 


--------------------------------------------------------------------------------------------------------


 ion  position               nearest neighbor table
   1  1.000  0.000  0.989-  11 1.80  25 1.91  27 1.91  21 1.91  17 1.91  31 1.96
   2  0.000  0.000  0.510-  11 1.80  26 1.91  28 1.91  18 1.91  22 1.91  31 1.96
   3  1.000  0.500  0.014-  12 1.78  23 1.93  19 1.93  13 1.99  25 1.99  27 2.00
   4  0.000  0.500  0.513-  13 1.78  20 1.93  24 1.93  12 1.98  26 2.00  28 2.00
   5  0.500  0.983  0.989-   9 1.78  14 1.82  32 1.98  29 2.05  17 2.05  21 2.05
   6  0.500  0.983  0.510-  10 1.78  14 1.82  32 1.98  30 2.05  22 2.05  18 2.05
   7  0.500  0.506  0.999-  15 1.88  16 1.89   9 1.94  19 2.02  23 2.02  29 2.04
   8  0.500  0.507  0.498-  15 1.88  16 1.89  10 1.94  24 2.02  20 2.02  30 2.04
   9  0.500  0.755  0.003-   5 1.78   7 1.94
  10  0.500  0.755  0.496-   6 1.78   8 1.94
  11  0.000  1.000  0.749-   2 1.80   1 1.80
  12  1.000  0.501  0.250-   3 1.78   4 1.98
  13  1.000  0.501  0.750-   4 1.78   3 1.99
  14  0.500  0.010  0.750-   6 1.82   5 1.82
  15  0.500  0.498  0.249-   7 1.88   8 1.88
  16  0.500  0.496  0.749-   7 1.89   8 1.89
  17  0.241  0.001  0.008-   1 1.91   5 2.05
  18  0.242  0.001  0.492-   2 1.91   6 2.05
  19  0.244  0.498  0.997-   3 1.93   7 2.02
  20  0.244  0.498  0.498-   4 1.93   8 2.02
  21  0.758  0.001  0.008-   1 1.91   5 2.05
  22  0.758  0.001  0.492-   2 1.91   6 2.05
  23  0.756  0.498  0.997-   3 1.93   7 2.02
  24  0.756  0.498  0.498-   4 1.93   8 2.02
  25  1.000  0.244  0.004-   1 1.91   3 1.99
  26  1.000  0.245  0.494-   2 1.91   4 2.00
  27  1.000  0.756  0.004-   1 1.91   3 2.00
  28  0.000  0.756  0.494-   2 1.91   4 2.00
  29  0.500  0.245  0.005-   7 2.04   5 2.05
  30  0.500  0.245  0.494-   8 2.04   6 2.05
  31  1.000  1.000  0.249-   2 1.96   1 1.96
  32  0.500  0.015  0.250-   5 1.98   6 1.98
 

IMPORTANT INFORMATION: All symmetrisations will be switched off!
NOSYMM: (Re-)initialisation of all symmetry stuff for point group C_1.

 
 
 KPOINTS: Title                                   

Automatic generation of k-mesh.
Space group operators:
 irot       det(A)        alpha          n_x          n_y          n_z        tau_x        tau_y        tau_z
    1     1.000000     0.000000     1.000000     0.000000     0.000000     0.000000     0.000000     0.000000
 
 Subroutine IBZKPT returns following result:
 ===========================================
 
 Found      4 irreducible k-points:
 
 Following reciprocal coordinates:
            Coordinates               Weight
  0.250000  0.250000  0.250000      2.000000
 -0.250000  0.250000  0.250000      2.000000
  0.250000 -0.250000  0.250000      2.000000
 -0.250000 -0.250000  0.250000      2.000000
 
 Following cartesian coordinates:
            Coordinates               Weight
  0.031649  0.032079  0.033198      2.000000
 -0.031657  0.032069  0.033199      2.000000
  0.031658 -0.032063  0.033195      2.000000
 -0.031647 -0.032073  0.033196      2.000000
 


--------------------------------------------------------------------------------------------------------




 Dimension of arrays:
   k-points           NKPTS =      4   k-points in BZ     NKDIM =      4   number of bands    NBANDS=    160
   number of dos      NEDOS =   3001   number of ions     NIONS =     32
   non local maximal  LDIM  =      6   non local SUM 2l+1 LMDIM =     18
   total plane-waves  NPLWV = 343000
   max r-space proj   IRMAX =  10257   max aug-charges    IRDMAX= 229938
   dimension x,y,z NGX =    70 NGY =   70 NGZ =   70
   dimension x,y,z NGXF=   140 NGYF=  140 NGZF=  140
   support grid    NGXF=   280 NGYF=  280 NGZF=  280
   ions per type =               8   8  16
   NGX,Y,Z   is equivalent  to a cutoff of  14.73, 14.93, 15.45 a.u.
   NGXF,Y,Z  is equivalent  to a cutoff of  29.47, 29.86, 30.91 a.u.

 SYSTEM =  LTO                                     
 POSCAR =  TiOF2 2x2x2 config 0006                 

 Startparameter for this run:
   NWRITE =      2    write-flag & timer
   PREC   = accura    normal or accurate (medium, high low for compatibility)
   ISTART =      1    job   : 0-new  1-cont  2-samecut
   ICHARG =      0    charge: 1-file 2-atom 10-const
   ISPIN  =      2    spin polarized calculation?
   LNONCOLLINEAR =      F non collinear calculations
   LSORBIT =      F    spin-orbit coupling
   INIWAV =      1    electr: 0-lowe 1-rand  2-diag
   LASPH  =      T    aspherical Exc in radial PAW
   METAGGA=      F    non-selfconsistent MetaGGA calc.

 Electronic Relaxation 1
   ENCUT  =  700.0 eV  51.45 Ry    7.17 a.u.  17.04 16.82 16.25*2*pi/ulx,y,z
   ENINI  =  700.0     initial cutoff
   ENAUG  =  613.6 eV  augmentation charge cutoff
   NELM   =     60;   NELMIN=  2; NELMDL=  0     # of ELM steps 
   EDIFF  = 0.1E-05   stopping-criterion for ELM
   LREAL  =      T    real-space projection
   NLSPLINE    = F    spline interpolate recip. space projectors
   LCOMPAT=      F    compatible to vasp.4.4
   GGA_COMPAT  = T    GGA compatible to vasp.4.4-vasp.4.6
   LMAXPAW     = -100 max onsite density
   LMAXMIX     =    4 max onsite mixed and CHGCAR
   VOSKOWN=      0    Vosko Wilk Nusair interpolation
   ROPT   =   -0.00010  -0.00010  -0.00010
 Ionic relaxation
   EDIFFG = -.1E-01   stopping-criterion for IOM
   NSW    =    100    number of steps for IOM
   NBLOCK =      1;   KBLOCK =    100    inner block; outer block 
   IBRION =      1    ionic relax: 0-MD 1-quasi-New 2-CG
   NFREE  =      0    steps in history (QN), initial steepest desc. (CG)
   ISIF   =      3    stress and relaxation
   IWAVPR =     11    prediction:  0-non 1-charg 2-wave 3-comb
   ISYM   =      0    0-nonsym 1-usesym 2-fastsym
   LCORR  =      T    Harris-Foulkes like correction to forces

   POTIM  = 0.5000    time-step for ionic-motion
   TEIN   =    0.0    initial temperature
   TEBEG  =    0.0;   TEEND  =   0.0 temperature during run
   SMASS  =  -3.00    Nose mass-parameter (am)
   estimated Nose-frequenzy (Omega)   =  0.10E-29 period in steps =****** mass=  -0.143E-26a.u.
   SCALEE = 1.0000    scale energy and forces
   NPACO  =    256;   APACO  = 16.0  distance and # of slots for P.C.
   PSTRESS=    0.0 pullay stress

  Mass of Ions in am
   POMASS =  47.88 16.00 19.00
  Ionic Valenz
   ZVAL   =  10.00  6.00  7.00
  Atomic Wigner-Seitz radii
   RWIGS  =  -1.00 -1.00 -1.00
  virtual crystal weights 
   VCA    =   1.00  1.00  1.00
   NELECT =     240.0000    total number of electrons
   NUPDOWN=      -1.0000    fix difference up-down

 DOS related values:
   EMIN   =  10.00;   EMAX   =-10.00  energy-range for DOS
   EFERMI =   0.00
   ISMEAR =     0;   SIGMA  =   0.01  broadening in eV -4-tet -1-fermi 0-gaus

 Electronic relaxation 2 (details)
   IALGO  =     38    algorithm
   LDIAG  =      T    sub-space diagonalisation (order eigenvalues)
   LSUBROT=      F    optimize rotation matrix (better conditioning)
   TURBO    =      0    0=normal 1=particle mesh
   IRESTART =      0    0=no restart 2=restart with 2 vectors
   NREBOOT  =      0    no. of reboots
   NMIN     =      0    reboot dimension
   EREF     =   0.00    reference energy to select bands
   IMIX   =      4    mixing-type and parameters
     AMIX     =   0.40;   BMIX     =  1.00
     AMIX_MAG =   1.60;   BMIX_MAG =  1.00
     AMIN     =   0.10
     WC   =   100.;   INIMIX=   1;  MIXPRE=   1;  MAXMIX= -45

 Intra band minimization:
   WEIMIN = 0.0010     energy-eigenvalue tresh-hold
   EBREAK =  0.16E-08  absolut break condition
   DEPER  =   0.30     relativ break condition  

   TIME   =   0.40     timestep for ELM

  volume/ion in A,a.u.               =      14.49        97.78
  Fermi-wavevector in a.u.,A,eV,Ry     =   1.314451  2.483953 23.507901  1.727782
  Thomas-Fermi vector in A             =   2.444703
 
 Write flags
   LWAVE        =      T    write WAVECAR
   LDOWNSAMPLE  =      F    k-point downsampling of WAVECAR
   LCHARG       =      T    write CHGCAR
   LVTOT        =      F    write LOCPOT, total local potential
   LVHAR        =      F    write LOCPOT, Hartree potential only
   LELF         =      F    write electronic localiz. function (ELF)
   LORBIT       =     11    0 simple, 1 ext, 2 COOP (PROOUT), +10 PAW based schemes


 Dipole corrections
   LMONO  =      F    monopole corrections only (constant potential shift)
   LDIPOL =      F    correct potential (dipole corrections)
   IDIPOL =      0    1-x, 2-y, 3-z, 4-all directions 
   EPSILON=  1.0000000 bulk dielectric constant

 LDA+U is selected, type is set to LDAUTYPE =  2
   angular momentum for each species LDAUL =     2   -1   -1
   U (eV)           for each species LDAUU =   4.2  0.0  0.0
   J (eV)           for each species LDAUJ =   0.0  0.0  0.0
 Exchange correlation treatment:
   GGA     =    PS    GGA type
   LEXCH   =    14    internal setting for exchange type
   VOSKOWN=      0    Vosko Wilk Nusair interpolation
   LHFCALC =     F    Hartree Fock is set to
   LHFONE  =     F    Hartree Fock one center treatment
   AEXX    =    0.0000 exact exchange contribution

 Linear response parameters
   LEPSILON=     F    determine dielectric tensor
   LRPA    =     F    only Hartree local field effects (RPA)
   LNABLA  =     F    use nabla operator in PAW spheres
   LVEL    =     F    velocity operator in full k-point grid
   LINTERFAST=   F  fast interpolation
   KINTER  =     0    interpolate to denser k-point grid
   CSHIFT  =0.1000    complex shift for real part using Kramers Kronig
   OMEGAMAX=  -1.0    maximum frequency
   DEG_THRESHOLD= 0.2000000E-02 threshold for treating states as degnerate
   RTIME   =   -0.100 relaxation time in fs
  (WPLASMAI=    0.000 imaginary part of plasma frequency in eV, 0.658/RTIME)
   DFIELD  = 0.0000000 0.0000000 0.0000000 field for delta impulse in time
 
 Orbital magnetization related:
   ORBITALMAG=     F  switch on orbital magnetization
   LCHIMAG   =     F  perturbation theory with respect to B field
   DQ        =  0.001000  dq finite difference perturbation B field
   LLRAUG    =     F  two centre corrections for induced B field



--------------------------------------------------------------------------------------------------------


 quasi-Newton-method for relaxation of ions
 charge density and potential will be updated during run
 spin polarized calculation
 Variant of blocked Davidson
 Davidson routine will perform the subspace rotation
 perform sub-space diagonalisation
    after iterative eigenvector-optimisation
 modified Broyden-mixing scheme, WC =      100.0
 initial mixing is a Kerker type mixing with AMIX =  0.4000 and BMIX =      1.0000
 Hartree-type preconditioning will be used
 using additional bands           40
 real space projection scheme for non local part
 use partial core corrections
 calculate Harris-corrections to forces 
   (improved forces if not selfconsistent)
 use gradient corrections 
 use of overlap-Matrix (Vanderbilt PP)
 Gauss-broadening in eV      SIGMA  =   0.01


--------------------------------------------------------------------------------------------------------


  energy-cutoff  :      700.00
  volume of cell :      463.66
      direct lattice vectors                 reciprocal lattice vectors
     7.898213669  0.001192180 -0.000149717     0.126610905  0.000019270 -0.000002717
    -0.001186432  7.795237183 -0.000718842    -0.000019363  0.128283458  0.000005872
     0.000161633 -0.000344694  7.530852056     0.000002515  0.000012245  0.132787100

  length of vectors
     7.898213760  7.795237306  7.530852065     0.126610906  0.128283460  0.132787100


 
 old parameters found on file WAVECAR:
  energy-cutoff  :      700.00
  volume of cell :      463.51
      direct lattice vectors                 reciprocal lattice vectors
     7.896917371  0.001190372 -0.000148221     0.126631688  0.000019299 -0.000002741
    -0.001187868  7.794197145 -0.000833661    -0.000019340  0.128300576  0.000007762
     0.000163044 -0.000455585  7.530604142     0.000002490  0.000014204  0.132791472

  length of vectors

 
 k-points in units of 2pi/SCALE and weight: Title                                   
   0.03164851  0.03207874  0.03319756       0.250
  -0.03165694  0.03206911  0.03319892       0.250
   0.03165820 -0.03206299  0.03319463       0.250
  -0.03164726 -0.03207262  0.03319599       0.250
 
 k-points in reciprocal lattice and weights: Title                                   
   0.25000000  0.25000000  0.25000000       0.250
  -0.25000000  0.25000000  0.25000000       0.250
   0.25000000 -0.25000000  0.25000000       0.250
  -0.25000000 -0.25000000  0.25000000       0.250
 
 position of ions in fractional coordinates (direct lattice) 
   0.99999787  0.00039776  0.98864473
   0.00000955  0.00043400  0.50971554
   0.99999438  0.50006959  0.01377099
   0.00000133  0.50010822  0.51299638
   0.49999285  0.98273863  0.98941754
   0.50000603  0.98284748  0.51018514
   0.49999320  0.50644062  0.99902722
   0.50000146  0.50657216  0.49832662
   0.49998181  0.75535260  0.00271260
   0.50000289  0.75543314  0.49621535
   0.00002926  0.99973706  0.74915292
   0.99999882  0.50073582  0.25004239
   0.99999610  0.50096688  0.74982779
   0.49998420  0.01039474  0.74977701
   0.49999739  0.49793432  0.24867637
   0.49999975  0.49637697  0.74869681
   0.24149436  0.00120402  0.00768174
   0.24155828  0.00125302  0.49175704
   0.24436584  0.49801550  0.99749365
   0.24444385  0.49806515  0.49793776
   0.75849916  0.00119642  0.00763515
   0.75845632  0.00124042  0.49181583
   0.75562327  0.49802769  0.99749806
   0.75555845  0.49807463  0.49793483
   0.99999113  0.24440854  0.00362470
   0.99999847  0.24463908  0.49398107
   0.99999909  0.75605460  0.00371482
   0.00001634  0.75587627  0.49379539
   0.49999176  0.24540473  0.00453753
   0.50000657  0.24541574  0.49444285
   0.99997855  0.99997022  0.24922698
   0.50003167  0.01461401  0.24973720
 
 position of ions in cartesian coordinates  (Angst):
   7.89835618  0.00395205  7.44518722
   0.00015730  0.00320743  3.83859204
   7.89757819  3.89934851  0.10319810
  -0.00049991  3.89828534  3.86294032
   3.94804431  7.66093575  7.45037579
   3.94807084  7.66194943  3.84134741
   3.94861377  3.94807651  7.52308729
   3.94859791  3.94927445  3.75238505
   3.94806743  5.88874779  0.01981037
   3.94831357  5.88920554  3.73630647
  -0.00083394  7.79292935  5.64104113
   7.89765067  3.90446044  1.88252259
   7.89770967  3.90608934  5.64633231
   3.94909092  0.08136711  5.64637741
   3.94853566  3.88202651  1.87231216
   3.94863698  3.86971421  5.63789326
   1.90737388  0.00967085  0.05781303
   1.90795690  0.00988602  3.70331248
   1.92962396  3.88209643  7.51158254
   1.93015935  3.88265573  3.74950097
   5.99078828  0.01022801  0.05738474
   5.99052807  0.01040403  3.70367782
   5.96764437  3.88280097  7.51153916
   5.96705162  3.88333904  3.74940241
   7.89785420  1.90641349  0.02697165
   7.89799117  1.90804152  3.71977276
   7.89731006  5.89481579  0.02728253
  -0.00068790  5.89206460  3.71815664
   3.94875137  1.91358257  0.03392022
   3.94894747  1.91349957  3.72332468
   7.89689815  7.79611130  1.87602301
   3.94937998  0.11442973  1.88064857
 


--------------------------------------------------------------------------------------------------------


 k-point  1 :   0.2500 0.2500 0.2500  plane waves:   19485
 k-point  2 :  -0.2500 0.2500 0.2500  plane waves:   19485
 k-point  3 :   0.2500-0.2500 0.2500  plane waves:   19484
 k-point  4 :  -0.2500-0.2500 0.2500  plane waves:   19484

 maximum and minimum number of plane-waves per node :      2453     2415

 maximum number of plane-waves:     19485
 maximum index in each direction: 
   IXMAX=   17   IYMAX=   17   IZMAX=   15
   IXMIN=  -17   IYMIN=  -17   IZMIN=  -16


 real space projection operators:
  total allocation   :      18465.42 KBytes
  max/ min on nodes  :       2454.59       1914.55


 parallel 3D FFT for wavefunctions:
    minimum data exchange during FFTs selected (reduces bandwidth)
 parallel 3D FFT for charge:
    minimum data exchange during FFTs selected (reduces bandwidth)


 total amount of memory used by VASP MPI-rank0    62287. kBytes
=======================================================================

   base      :      30000. kBytes
   nonlr-proj:       8548. kBytes
   fftplans  :       8422. kBytes
   grid      :       8783. kBytes
   one-center:        124. kBytes
   wavefun   :       6410. kBytes
 
     INWAV:  cpu time    3.9194: real time   28.2752
 Broyden mixing: mesh for mixing (old mesh)
   NGX = 35   NGY = 33   NGZ = 33
  (NGX  =140   NGY  =140   NGZ  =140)
  gives a total of  38115 points

 charge density for first step will be calculated from the start-wavefunctions


--------------------------------------------------------------------------------------------------------


 Maximum index for non-local projection operator         1381
 Maximum index for augmentation-charges         7159 (set IRDMAX)


--------------------------------------------------------------------------------------------------------


 initial charge from wavefunction
 First call to EWALD:  gamma=   0.229
 Maximum number of real-space cells 3x 3x 3
 Maximum number of reciprocal cells 3x 3x 3

    FEWALD:  cpu time    0.0030: real time    0.0032


--------------------------------------- Iteration      1(   1)  ---------------------------------------


    POTLOK:  cpu time    0.9589: real time    1.3481
    SETDIJ:  cpu time    0.8399: real time    0.8390
     EDDAV:  cpu time    3.5575: real time    3.5574
       DOS:  cpu time    0.0010: real time    0.0008
    CHARGE:  cpu time    0.4019: real time    0.3993
    MIXING:  cpu time    0.0040: real time    0.0026
    --------------------------------------------
      LOOP:  cpu time    5.7631: real time    6.1471

 eigenvalue-minimisations  :  2560
 total energy-change (2. order) :-0.2115373E+03  (-0.4065610E-03)
 number of electron     240.0000004 magnetization      -0.0000000
 augmentation part       61.9601054 magnetization      -0.0000000

 Broyden mixing:
  rms(total) = 0.84317E-03    rms(broyden)= 0.84208E-03
  rms(prec ) = 0.15421E-02
  weight for this iteration     100.00

 Free energy of the ion-electron system (eV)
  ---------------------------------------------------
  alpha Z        PSCENC =       755.21701710
  Ewald energy   TEWEN  =    -12753.79480610
  -Hartree energ DENC   =     -8272.05103364
  -exchange      EXHF   =         0.00000000
  -V(xc)+E(xc)   XCENC  =      1119.57139768
  PAW double counting   =     18009.13174154   -18132.05462548
  entropy T*S    EENTRO =        -0.00000000
  eigenvalues    EBANDS =     -3239.91020737
  atomic energy  EATOM  =     22302.35321627
  Solvation  Ediel_sol  =         0.00000000
  ---------------------------------------------------
  free energy    TOTEN  =      -211.53729999 eV

  energy without entropy =     -211.53729999  energy(sigma->0) =     -211.53729999


--------------------------------------------------------------------------------------------------------




--------------------------------------- Iteration      1(   2)  ---------------------------------------


    POTLOK:  cpu time    0.2410: real time    1.0690
    SETDIJ:  cpu time    0.8449: real time    0.8446
     EDDAV:  cpu time    4.3763: real time    4.3784
       DOS:  cpu time    0.0010: real time    0.0009
    --------------------------------------------
      LOOP:  cpu time    5.4632: real time    6.2928

 eigenvalue-minimisations  :  3264
 total energy-change (2. order) : 0.8262723E-06  (-0.6582120E-06)
 number of electron     240.0000004 magnetization      -0.0000000
 augmentation part       61.9601054 magnetization      -0.0000000

 Free energy of the ion-electron system (eV)
  ---------------------------------------------------
  alpha Z        PSCENC =       755.21701710
  Ewald energy   TEWEN  =    -12753.79480610
  -Hartree energ DENC   =     -8272.04625568
  -exchange      EXHF   =         0.00000000
  -V(xc)+E(xc)   XCENC  =      1119.57050721
  PAW double counting   =     18009.14810600   -18132.06969682
  entropy T*S    EENTRO =        -0.00000000
  eigenvalues    EBANDS =     -3239.91538715
  atomic energy  EATOM  =     22302.35321627
  Solvation  Ediel_sol  =         0.00000000
  ---------------------------------------------------
  free energy    TOTEN  =      -211.53729916 eV

  energy without entropy =     -211.53729916  energy(sigma->0) =     -211.53729916


--------------------------------------------------------------------------------------------------------




 average (electrostatic) potential at core
  the test charge radii are     1.0397  0.7215  0.7167
  (the norm of the test charge is              1.0000)
       1 -60.2266       2 -60.2246       3 -58.9374       4 -58.9428       5 -58.3267
       6 -58.3256       7 -58.0062       8 -58.0056       9 -73.5329      10 -73.5306
      11 -75.3723      12 -73.7730      13 -73.7673      14 -73.7585      15 -72.7147
      16 -72.7010      17 -79.7569      18 -79.7572      19 -78.9573      20 -78.9571
      21 -79.7569      22 -79.7572      23 -78.9573      24 -78.9571      25 -80.0572
      26 -80.0442      27 -80.0544      28 -80.0410      29 -77.8983      30 -77.8972
      31 -79.9672      32 -78.6766
 
 
 
 E-fermi :   0.1187     XC(G=0):  -8.9620     alpha+bet : -7.6210


 spin component 1

 k-point     1 :       0.2500    0.2500    0.2500
  band No.  band energies     occupation 
      1     -36.1878      1.00000
      2     -36.1808      1.00000
      3     -36.1487      1.00000
      4     -36.1453      1.00000
      5     -36.1074      1.00000
      6     -36.0257      1.00000
      7     -35.0230      1.00000
      8     -35.0192      1.00000
      9     -34.9398      1.00000
     10     -34.9351      1.00000
     11     -34.6225      1.00000
     12     -34.5659      1.00000
     13     -34.4315      1.00000
     14     -34.4282      1.00000
     15     -34.2844      1.00000
     16     -34.2043      1.00000
     17     -34.1528      1.00000
     18     -34.1458      1.00000
     19     -34.0628      1.00000
     20     -34.0604      1.00000
     21     -33.8886      1.00000
     22     -33.8860      1.00000
     23     -33.6476      1.00000
     24     -33.5914      1.00000
     25     -23.9580      1.00000
     26     -23.8826      1.00000
     27     -23.6544      1.00000
     28     -23.5292      1.00000
     29     -23.4945      1.00000
     30     -23.4749      1.00000
     31     -23.4703      1.00000
     32     -23.2103      1.00000
     33     -23.1985      1.00000
     34     -22.7447      1.00000
     35     -22.7328      1.00000
     36     -22.4288      1.00000
     37     -22.4192      1.00000
     38     -22.3743      1.00000
     39     -21.5557      1.00000
     40     -21.5455      1.00000
     41     -17.8546      1.00000
     42     -16.5728      1.00000
     43     -16.3211      1.00000
     44     -16.0065      1.00000
     45     -15.9572      1.00000
     46     -15.9412      1.00000
     47     -15.5112      1.00000
     48     -14.9258      1.00000
     49      -7.4199      1.00000
     50      -7.3932      1.00000
     51      -7.2246      1.00000
     52      -7.0250      1.00000
     53      -7.0069      1.00000
     54      -6.4005      1.00000
     55      -6.2507      1.00000
     56      -6.2213      1.00000
     57      -6.2133      1.00000
     58      -6.1778      1.00000
     59      -5.9651      1.00000
     60      -5.9618      1.00000
     61      -5.8958      1.00000
     62      -5.8509      1.00000
     63      -5.7699      1.00000
     64      -5.7031      1.00000
     65      -5.3259      1.00000
     66      -5.2710      1.00000
     67      -5.2588      1.00000
     68      -5.2082      1.00000
     69      -5.1728      1.00000
     70      -5.0662      1.00000
     71      -5.0287      1.00000
     72      -4.9726      1.00000
     73      -4.9224      1.00000
     74      -4.8724      1.00000
     75      -4.7908      1.00000
     76      -4.6833      1.00000
     77      -4.6454      1.00000
     78      -4.6233      1.00000
     79      -4.6041      1.00000
     80      -4.5629      1.00000
     81      -4.3143      1.00000
     82      -4.2677      1.00000
     83      -4.2325      1.00000
     84      -4.2163      1.00000
     85      -4.1727      1.00000
     86      -4.1348      1.00000
     87      -4.0758      1.00000
     88      -4.0350      1.00000
     89      -4.0060      1.00000
     90      -3.8912      1.00000
     91      -3.8217      1.00000
     92      -3.7796      1.00000
     93      -3.7459      1.00000
     94      -3.5651      1.00000
     95      -3.5285      1.00000
     96      -3.4709      1.00000
     97      -3.0955      1.00000
     98      -3.0737      1.00000
     99      -2.9377      1.00000
    100      -2.8558      1.00000
    101      -2.7649      1.00000
    102      -2.7345      1.00000
    103      -2.7189      1.00000
    104      -2.6009      1.00000
    105      -2.3031      1.00000
    106      -2.1310      1.00000
    107      -1.9092      1.00000
    108      -1.8815      1.00000
    109      -1.6599      1.00000
    110      -1.6253      1.00000
    111      -1.6008      1.00000
    112      -1.5372      1.00000
    113      -1.5283      1.00000
    114      -1.3530      1.00000
    115      -1.1875      1.00000
    116      -1.0203      1.00000
    117      -0.7571      1.00000
    118      -0.4248      1.00000
    119      -0.1324      1.00000
    120       0.0715      1.00000
    121       1.2791      0.00000
    122       1.3180      0.00000
    123       1.6088      0.00000
    124       1.6294      0.00000
    125       2.4098      0.00000
    126       2.4614      0.00000
    127       2.5023      0.00000
    128       2.6022      0.00000
    129       2.6180      0.00000
    130       2.6251      0.00000
    131       2.7302      0.00000
    132       2.8187      0.00000
    133       2.9066      0.00000
    134       2.9619      0.00000
    135       3.0480      0.00000
    136       3.0907      0.00000
    137       3.1013      0.00000
    138       3.3886      0.00000
    139       3.7006      0.00000
    140       3.7940      0.00000
    141       3.8669      0.00000
    142       3.8921      0.00000
    143       3.9174      0.00000
    144       3.9629      0.00000
    145       4.0529      0.00000
    146       4.0848      0.00000
    147       4.1313      0.00000
    148       4.2406      0.00000
    149       4.3077      0.00000
    150       4.6168      0.00000
    151       4.6977      0.00000
    152       4.8234      0.00000
    153       4.8613      0.00000
    154       5.1234      0.00000
    155       5.3689      0.00000
    156       5.4202      0.00000
    157       5.9594      0.00000
    158       6.1866      0.00000
    159       6.5931      0.00000
    160       6.6073      0.00000

 k-point     2 :      -0.2500    0.2500    0.2500
  band No.  band energies     occupation 
      1     -36.1878      1.00000
      2     -36.1808      1.00000
      3     -36.1487      1.00000
      4     -36.1453      1.00000
      5     -36.1074      1.00000
      6     -36.0257      1.00000
      7     -35.0230      1.00000
      8     -35.0192      1.00000
      9     -34.9398      1.00000
     10     -34.9351      1.00000
     11     -34.6225      1.00000
     12     -34.5659      1.00000
     13     -34.4315      1.00000
     14     -34.4282      1.00000
     15     -34.2844      1.00000
     16     -34.2043      1.00000
     17     -34.1528      1.00000
     18     -34.1458      1.00000
     19     -34.0628      1.00000
     20     -34.0604      1.00000
     21     -33.8886      1.00000
     22     -33.8860      1.00000
     23     -33.6476      1.00000
     24     -33.5914      1.00000
     25     -23.9580      1.00000
     26     -23.8826      1.00000
     27     -23.6544      1.00000
     28     -23.5292      1.00000
     29     -23.4945      1.00000
     30     -23.4749      1.00000
     31     -23.4703      1.00000
     32     -23.2103      1.00000
     33     -23.1985      1.00000
     34     -22.7447      1.00000
     35     -22.7328      1.00000
     36     -22.4288      1.00000
     37     -22.4192      1.00000
     38     -22.3743      1.00000
     39     -21.5557      1.00000
     40     -21.5455      1.00000
     41     -17.8546      1.00000
     42     -16.5728      1.00000
     43     -16.3211      1.00000
     44     -16.0065      1.00000
     45     -15.9572      1.00000
     46     -15.9412      1.00000
     47     -15.5112      1.00000
     48     -14.9258      1.00000
     49      -7.4199      1.00000
     50      -7.3932      1.00000
     51      -7.2246      1.00000
     52      -7.0250      1.00000
     53      -7.0069      1.00000
     54      -6.4005      1.00000
     55      -6.2507      1.00000
     56      -6.2213      1.00000
     57      -6.2133      1.00000
     58      -6.1778      1.00000
     59      -5.9651      1.00000
     60      -5.9618      1.00000
     61      -5.8958      1.00000
     62      -5.8509      1.00000
     63      -5.7698      1.00000
     64      -5.7031      1.00000
     65      -5.3259      1.00000
     66      -5.2709      1.00000
     67      -5.2588      1.00000
     68      -5.2082      1.00000
     69      -5.1728      1.00000
     70      -5.0663      1.00000
     71      -5.0287      1.00000
     72      -4.9726      1.00000
     73      -4.9224      1.00000
     74      -4.8724      1.00000
     75      -4.7908      1.00000
     76      -4.6833      1.00000
     77      -4.6454      1.00000
     78      -4.6233      1.00000
     79      -4.6041      1.00000
     80      -4.5629      1.00000
     81      -4.3143      1.00000
     82      -4.2677      1.00000
     83      -4.2325      1.00000
     84      -4.2163      1.00000
     85      -4.1727      1.00000
     86      -4.1348      1.00000
     87      -4.0758      1.00000
     88      -4.0350      1.00000
     89      -4.0060      1.00000
     90      -3.8912      1.00000
     91      -3.8216      1.00000
     92      -3.7796      1.00000
     93      -3.7459      1.00000
     94      -3.5651      1.00000
     95      -3.5285      1.00000
     96      -3.4709      1.00000
     97      -3.0955      1.00000
     98      -3.0737      1.00000
     99      -2.9377      1.00000
    100      -2.8558      1.00000
    101      -2.7649      1.00000
    102      -2.7345      1.00000
    103      -2.7189      1.00000
    104      -2.6009      1.00000
    105      -2.3031      1.00000
    106      -2.1310      1.00000
    107      -1.9092      1.00000
    108      -1.8815      1.00000
    109      -1.6599      1.00000
    110      -1.6253      1.00000
    111      -1.6008      1.00000
    112      -1.5372      1.00000
    113      -1.5283      1.00000
    114      -1.3530      1.00000
    115      -1.1875      1.00000
    116      -1.0203      1.00000
    117      -0.7571      1.00000
    118      -0.4248      1.00000
    119      -0.1324      1.00000
    120       0.0715      1.00000
    121       1.2791      0.00000
    122       1.3180      0.00000
    123       1.6088      0.00000
    124       1.6294      0.00000
    125       2.4098      0.00000
    126       2.4614      0.00000
    127       2.5023      0.00000
    128       2.6022      0.00000
    129       2.6180      0.00000
    130       2.6251      0.00000
    131       2.7302      0.00000
    132       2.8187      0.00000
    133       2.9066      0.00000
    134       2.9619      0.00000
    135       3.0480      0.00000
    136       3.0907      0.00000
    137       3.1013      0.00000
    138       3.3886      0.00000
    139       3.7006      0.00000
    140       3.7940      0.00000
    141       3.8669      0.00000
    142       3.8922      0.00000
    143       3.9174      0.00000
    144       3.9629      0.00000
    145       4.0528      0.00000
    146       4.0848      0.00000
    147       4.1313      0.00000
    148       4.2406      0.00000
    149       4.3077      0.00000
    150       4.6168      0.00000
    151       4.6977      0.00000
    152       4.8234      0.00000
    153       4.8613      0.00000
    154       5.1234      0.00000
    155       5.3689      0.00000
    156       5.4202      0.00000
    157       5.9594      0.00000
    158       6.1866      0.00000
    159       6.5931      0.00000
    160       6.6073      0.00000

 k-point     3 :       0.2500   -0.2500    0.2500
  band No.  band energies     occupation 
      1     -36.1878      1.00000
      2     -36.1808      1.00000
      3     -36.1487      1.00000
      4     -36.1453      1.00000
      5     -36.1074      1.00000
      6     -36.0257      1.00000
      7     -35.0230      1.00000
      8     -35.0192      1.00000
      9     -34.9398      1.00000
     10     -34.9351      1.00000
     11     -34.6225      1.00000
     12     -34.5659      1.00000
     13     -34.4315      1.00000
     14     -34.4282      1.00000
     15     -34.2844      1.00000
     16     -34.2043      1.00000
     17     -34.1528      1.00000
     18     -34.1458      1.00000
     19     -34.0628      1.00000
     20     -34.0604      1.00000
     21     -33.8886      1.00000
     22     -33.8860      1.00000
     23     -33.6476      1.00000
     24     -33.5914      1.00000
     25     -23.9580      1.00000
     26     -23.8826      1.00000
     27     -23.6544      1.00000
     28     -23.5292      1.00000
     29     -23.4944      1.00000
     30     -23.4752      1.00000
     31     -23.4702      1.00000
     32     -23.2103      1.00000
     33     -23.1985      1.00000
     34     -22.7447      1.00000
     35     -22.7328      1.00000
     36     -22.4288      1.00000
     37     -22.4192      1.00000
     38     -22.3743      1.00000
     39     -21.5557      1.00000
     40     -21.5455      1.00000
     41     -17.8546      1.00000
     42     -16.5728      1.00000
     43     -16.3211      1.00000
     44     -16.0065      1.00000
     45     -15.9572      1.00000
     46     -15.9412      1.00000
     47     -15.5112      1.00000
     48     -14.9258      1.00000
     49      -7.4198      1.00000
     50      -7.3932      1.00000
     51      -7.2247      1.00000
     52      -7.0250      1.00000
     53      -7.0069      1.00000
     54      -6.4004      1.00000
     55      -6.2509      1.00000
     56      -6.2213      1.00000
     57      -6.2133      1.00000
     58      -6.1776      1.00000
     59      -5.9653      1.00000
     60      -5.9612      1.00000
     61      -5.8959      1.00000
     62      -5.8506      1.00000
     63      -5.7698      1.00000
     64      -5.7032      1.00000
     65      -5.3255      1.00000
     66      -5.2724      1.00000
     67      -5.2586      1.00000
     68      -5.2082      1.00000
     69      -5.1747      1.00000
     70      -5.0648      1.00000
     71      -5.0303      1.00000
     72      -4.9727      1.00000
     73      -4.9216      1.00000
     74      -4.8723      1.00000
     75      -4.7913      1.00000
     76      -4.6835      1.00000
     77      -4.6458      1.00000
     78      -4.6218      1.00000
     79      -4.6047      1.00000
     80      -4.5600      1.00000
     81      -4.3140      1.00000
     82      -4.2666      1.00000
     83      -4.2349      1.00000
     84      -4.2165      1.00000
     85      -4.1719      1.00000
     86      -4.1347      1.00000
     87      -4.0758      1.00000
     88      -4.0348      1.00000
     89      -4.0063      1.00000
     90      -3.8909      1.00000
     91      -3.8230      1.00000
     92      -3.7785      1.00000
     93      -3.7462      1.00000
     94      -3.5649      1.00000
     95      -3.5282      1.00000
     96      -3.4710      1.00000
     97      -3.0982      1.00000
     98      -3.0743      1.00000
     99      -2.9374      1.00000
    100      -2.8538      1.00000
    101      -2.7649      1.00000
    102      -2.7342      1.00000
    103      -2.7188      1.00000
    104      -2.6000      1.00000
    105      -2.3048      1.00000
    106      -2.1316      1.00000
    107      -1.9089      1.00000
    108      -1.8817      1.00000
    109      -1.6587      1.00000
    110      -1.6250      1.00000
    111      -1.6002      1.00000
    112      -1.5369      1.00000
    113      -1.5288      1.00000
    114      -1.3526      1.00000
    115      -1.1896      1.00000
    116      -1.0201      1.00000
    117      -0.7570      1.00000
    118      -0.4249      1.00000
    119      -0.1328      1.00000
    120       0.0726      1.00000
    121       1.2790      0.00000
    122       1.3180      0.00000
    123       1.6088      0.00000
    124       1.6294      0.00000
    125       2.4081      0.00000
    126       2.4617      0.00000
    127       2.5076      0.00000
    128       2.6027      0.00000
    129       2.6182      0.00000
    130       2.6248      0.00000
    131       2.7307      0.00000
    132       2.8158      0.00000
    133       2.9068      0.00000
    134       2.9592      0.00000
    135       3.0478      0.00000
    136       3.0915      0.00000
    137       3.1008      0.00000
    138       3.3879      0.00000
    139       3.6997      0.00000
    140       3.7959      0.00000
    141       3.8636      0.00000
    142       3.8904      0.00000
    143       3.9210      0.00000
    144       3.9632      0.00000
    145       4.0541      0.00000
    146       4.0857      0.00000
    147       4.1309      0.00000
    148       4.2396      0.00000
    149       4.3103      0.00000
    150       4.6160      0.00000
    151       4.6960      0.00000
    152       4.8222      0.00000
    153       4.8611      0.00000
    154       5.1270      0.00000
    155       5.3671      0.00000
    156       5.4202      0.00000
    157       5.9586      0.00000
    158       6.1871      0.00000
    159       6.5977      0.00000
    160       6.6043      0.00000

 k-point     4 :      -0.2500   -0.2500    0.2500
  band No.  band energies     occupation 
      1     -36.1878      1.00000
      2     -36.1808      1.00000
      3     -36.1487      1.00000
      4     -36.1453      1.00000
      5     -36.1074      1.00000
      6     -36.0257      1.00000
      7     -35.0230      1.00000
      8     -35.0192      1.00000
      9     -34.9398      1.00000
     10     -34.9351      1.00000
     11     -34.6225      1.00000
     12     -34.5659      1.00000
     13     -34.4315      1.00000
     14     -34.4282      1.00000
     15     -34.2844      1.00000
     16     -34.2043      1.00000
     17     -34.1528      1.00000
     18     -34.1458      1.00000
     19     -34.0628      1.00000
     20     -34.0604      1.00000
     21     -33.8886      1.00000
     22     -33.8860      1.00000
     23     -33.6476      1.00000
     24     -33.5914      1.00000
     25     -23.9580      1.00000
     26     -23.8826      1.00000
     27     -23.6544      1.00000
     28     -23.5292      1.00000
     29     -23.4944      1.00000
     30     -23.4752      1.00000
     31     -23.4702      1.00000
     32     -23.2103      1.00000
     33     -23.1985      1.00000
     34     -22.7447      1.00000
     35     -22.7328      1.00000
     36     -22.4288      1.00000
     37     -22.4192      1.00000
     38     -22.3743      1.00000
     39     -21.5557      1.00000
     40     -21.5455      1.00000
     41     -17.8546      1.00000
     42     -16.5728      1.00000
     43     -16.3211      1.00000
     44     -16.0065      1.00000
     45     -15.9572      1.00000
     46     -15.9412      1.00000
     47     -15.5112      1.00000
     48     -14.9258      1.00000
     49      -7.4198      1.00000
     50      -7.3932      1.00000
     51      -7.2247      1.00000
     52      -7.0250      1.00000
     53      -7.0069      1.00000
     54      -6.4004      1.00000
     55      -6.2509      1.00000
     56      -6.2213      1.00000
     57      -6.2133      1.00000
     58      -6.1776      1.00000
     59      -5.9653      1.00000
     60      -5.9612      1.00000
     61      -5.8959      1.00000
     62      -5.8506      1.00000
     63      -5.7698      1.00000
     64      -5.7033      1.00000
     65      -5.3255      1.00000
     66      -5.2724      1.00000
     67      -5.2586      1.00000
     68      -5.2082      1.00000
     69      -5.1747      1.00000
     70      -5.0648      1.00000
     71      -5.0303      1.00000
     72      -4.9727      1.00000
     73      -4.9216      1.00000
     74      -4.8723      1.00000
     75      -4.7913      1.00000
     76      -4.6835      1.00000
     77      -4.6458      1.00000
     78      -4.6219      1.00000
     79      -4.6047      1.00000
     80      -4.5600      1.00000
     81      -4.3140      1.00000
     82      -4.2666      1.00000
     83      -4.2350      1.00000
     84      -4.2165      1.00000
     85      -4.1719      1.00000
     86      -4.1347      1.00000
     87      -4.0758      1.00000
     88      -4.0348      1.00000
     89      -4.0063      1.00000
     90      -3.8910      1.00000
     91      -3.8230      1.00000
     92      -3.7785      1.00000
     93      -3.7462      1.00000
     94      -3.5649      1.00000
     95      -3.5282      1.00000
     96      -3.4710      1.00000
     97      -3.0982      1.00000
     98      -3.0743      1.00000
     99      -2.9374      1.00000
    100      -2.8538      1.00000
    101      -2.7649      1.00000
    102      -2.7342      1.00000
    103      -2.7188      1.00000
    104      -2.6000      1.00000
    105      -2.3048      1.00000
    106      -2.1316      1.00000
    107      -1.9089      1.00000
    108      -1.8817      1.00000
    109      -1.6587      1.00000
    110      -1.6250      1.00000
    111      -1.6002      1.00000
    112      -1.5369      1.00000
    113      -1.5288      1.00000
    114      -1.3526      1.00000
    115      -1.1896      1.00000
    116      -1.0201      1.00000
    117      -0.7570      1.00000
    118      -0.4249      1.00000
    119      -0.1328      1.00000
    120       0.0726      1.00000
    121       1.2790      0.00000
    122       1.3180      0.00000
    123       1.6088      0.00000
    124       1.6294      0.00000
    125       2.4081      0.00000
    126       2.4617      0.00000
    127       2.5076      0.00000
    128       2.6027      0.00000
    129       2.6182      0.00000
    130       2.6248      0.00000
    131       2.7306      0.00000
    132       2.8159      0.00000
    133       2.9068      0.00000
    134       2.9592      0.00000
    135       3.0478      0.00000
    136       3.0915      0.00000
    137       3.1009      0.00000
    138       3.3879      0.00000
    139       3.6997      0.00000
    140       3.7959      0.00000
    141       3.8636      0.00000
    142       3.8904      0.00000
    143       3.9210      0.00000
    144       3.9632      0.00000
    145       4.0541      0.00000
    146       4.0857      0.00000
    147       4.1309      0.00000
    148       4.2396      0.00000
    149       4.3103      0.00000
    150       4.6160      0.00000
    151       4.6960      0.00000
    152       4.8222      0.00000
    153       4.8611      0.00000
    154       5.1270      0.00000
    155       5.3671      0.00000
    156       5.4202      0.00000
    157       5.9586      0.00000
    158       6.1871      0.00000
    159       6.5977      0.00000
    160       6.6043      0.00000

 spin component 2

 k-point     1 :       0.2500    0.2500    0.2500
  band No.  band energies     occupation 
      1     -36.1878      1.00000
      2     -36.1808      1.00000
      3     -36.1487      1.00000
      4     -36.1453      1.00000
      5     -36.1074      1.00000
      6     -36.0257      1.00000
      7     -35.0230      1.00000
      8     -35.0192      1.00000
      9     -34.9398      1.00000
     10     -34.9351      1.00000
     11     -34.6225      1.00000
     12     -34.5659      1.00000
     13     -34.4315      1.00000
     14     -34.4282      1.00000
     15     -34.2844      1.00000
     16     -34.2043      1.00000
     17     -34.1528      1.00000
     18     -34.1458      1.00000
     19     -34.0628      1.00000
     20     -34.0604      1.00000
     21     -33.8886      1.00000
     22     -33.8860      1.00000
     23     -33.6476      1.00000
     24     -33.5914      1.00000
     25     -23.9580      1.00000
     26     -23.8826      1.00000
     27     -23.6544      1.00000
     28     -23.5292      1.00000
     29     -23.4945      1.00000
     30     -23.4749      1.00000
     31     -23.4703      1.00000
     32     -23.2103      1.00000
     33     -23.1985      1.00000
     34     -22.7447      1.00000
     35     -22.7328      1.00000
     36     -22.4288      1.00000
     37     -22.4192      1.00000
     38     -22.3743      1.00000
     39     -21.5557      1.00000
     40     -21.5455      1.00000
     41     -17.8546      1.00000
     42     -16.5728      1.00000
     43     -16.3211      1.00000
     44     -16.0065      1.00000
     45     -15.9572      1.00000
     46     -15.9412      1.00000
     47     -15.5112      1.00000
     48     -14.9258      1.00000
     49      -7.4199      1.00000
     50      -7.3932      1.00000
     51      -7.2246      1.00000
     52      -7.0250      1.00000
     53      -7.0069      1.00000
     54      -6.4005      1.00000
     55      -6.2507      1.00000
     56      -6.2213      1.00000
     57      -6.2133      1.00000
     58      -6.1778      1.00000
     59      -5.9651      1.00000
     60      -5.9618      1.00000
     61      -5.8958      1.00000
     62      -5.8509      1.00000
     63      -5.7699      1.00000
     64      -5.7031      1.00000
     65      -5.3259      1.00000
     66      -5.2710      1.00000
     67      -5.2588      1.00000
     68      -5.2082      1.00000
     69      -5.1728      1.00000
     70      -5.0662      1.00000
     71      -5.0287      1.00000
     72      -4.9726      1.00000
     73      -4.9224      1.00000
     74      -4.8724      1.00000
     75      -4.7908      1.00000
     76      -4.6833      1.00000
     77      -4.6454      1.00000
     78      -4.6233      1.00000
     79      -4.6041      1.00000
     80      -4.5629      1.00000
     81      -4.3143      1.00000
     82      -4.2677      1.00000
     83      -4.2325      1.00000
     84      -4.2163      1.00000
     85      -4.1727      1.00000
     86      -4.1348      1.00000
     87      -4.0758      1.00000
     88      -4.0350      1.00000
     89      -4.0060      1.00000
     90      -3.8912      1.00000
     91      -3.8217      1.00000
     92      -3.7796      1.00000
     93      -3.7459      1.00000
     94      -3.5651      1.00000
     95      -3.5285      1.00000
     96      -3.4709      1.00000
     97      -3.0955      1.00000
     98      -3.0737      1.00000
     99      -2.9377      1.00000
    100      -2.8558      1.00000
    101      -2.7649      1.00000
    102      -2.7345      1.00000
    103      -2.7189      1.00000
    104      -2.6009      1.00000
    105      -2.3031      1.00000
    106      -2.1310      1.00000
    107      -1.9092      1.00000
    108      -1.8815      1.00000
    109      -1.6599      1.00000
    110      -1.6253      1.00000
    111      -1.6008      1.00000
    112      -1.5372      1.00000
    113      -1.5283      1.00000
    114      -1.3530      1.00000
    115      -1.1875      1.00000
    116      -1.0203      1.00000
    117      -0.7571      1.00000
    118      -0.4248      1.00000
    119      -0.1324      1.00000
    120       0.0715      1.00000
    121       1.2791      0.00000
    122       1.3180      0.00000
    123       1.6088      0.00000
    124       1.6294      0.00000
    125       2.4098      0.00000
    126       2.4614      0.00000
    127       2.5023      0.00000
    128       2.6022      0.00000
    129       2.6180      0.00000
    130       2.6251      0.00000
    131       2.7302      0.00000
    132       2.8187      0.00000
    133       2.9066      0.00000
    134       2.9619      0.00000
    135       3.0480      0.00000
    136       3.0907      0.00000
    137       3.1013      0.00000
    138       3.3886      0.00000
    139       3.7006      0.00000
    140       3.7940      0.00000
    141       3.8669      0.00000
    142       3.8921      0.00000
    143       3.9174      0.00000
    144       3.9629      0.00000
    145       4.0529      0.00000
    146       4.0848      0.00000
    147       4.1313      0.00000
    148       4.2406      0.00000
    149       4.3077      0.00000
    150       4.6168      0.00000
    151       4.6977      0.00000
    152       4.8234      0.00000
    153       4.8613      0.00000
    154       5.1234      0.00000
    155       5.3689      0.00000
    156       5.4202      0.00000
    157       5.9594      0.00000
    158       6.1866      0.00000
    159       6.5931      0.00000
    160       6.6073      0.00000

 k-point     2 :      -0.2500    0.2500    0.2500
  band No.  band energies     occupation 
      1     -36.1878      1.00000
      2     -36.1808      1.00000
      3     -36.1487      1.00000
      4     -36.1453      1.00000
      5     -36.1074      1.00000
      6     -36.0257      1.00000
      7     -35.0230      1.00000
      8     -35.0192      1.00000
      9     -34.9398      1.00000
     10     -34.9351      1.00000
     11     -34.6225      1.00000
     12     -34.5659      1.00000
     13     -34.4315      1.00000
     14     -34.4282      1.00000
     15     -34.2844      1.00000
     16     -34.2043      1.00000
     17     -34.1528      1.00000
     18     -34.1458      1.00000
     19     -34.0628      1.00000
     20     -34.0604      1.00000
     21     -33.8886      1.00000
     22     -33.8860      1.00000
     23     -33.6476      1.00000
     24     -33.5914      1.00000
     25     -23.9580      1.00000
     26     -23.8826      1.00000
     27     -23.6544      1.00000
     28     -23.5292      1.00000
     29     -23.4945      1.00000
     30     -23.4749      1.00000
     31     -23.4703      1.00000
     32     -23.2103      1.00000
     33     -23.1985      1.00000
     34     -22.7447      1.00000
     35     -22.7328      1.00000
     36     -22.4288      1.00000
     37     -22.4192      1.00000
     38     -22.3743      1.00000
     39     -21.5557      1.00000
     40     -21.5455      1.00000
     41     -17.8546      1.00000
     42     -16.5728      1.00000
     43     -16.3211      1.00000
     44     -16.0065      1.00000
     45     -15.9572      1.00000
     46     -15.9412      1.00000
     47     -15.5112      1.00000
     48     -14.9258      1.00000
     49      -7.4199      1.00000
     50      -7.3932      1.00000
     51      -7.2246      1.00000
     52      -7.0250      1.00000
     53      -7.0069      1.00000
     54      -6.4005      1.00000
     55      -6.2507      1.00000
     56      -6.2213      1.00000
     57      -6.2133      1.00000
     58      -6.1778      1.00000
     59      -5.9651      1.00000
     60      -5.9618      1.00000
     61      -5.8958      1.00000
     62      -5.8509      1.00000
     63      -5.7698      1.00000
     64      -5.7031      1.00000
     65      -5.3259      1.00000
     66      -5.2709      1.00000
     67      -5.2588      1.00000
     68      -5.2082      1.00000
     69      -5.1728      1.00000
     70      -5.0663      1.00000
     71      -5.0287      1.00000
     72      -4.9726      1.00000
     73      -4.9224      1.00000
     74      -4.8724      1.00000
     75      -4.7908      1.00000
     76      -4.6833      1.00000
     77      -4.6454      1.00000
     78      -4.6233      1.00000
     79      -4.6041      1.00000
     80      -4.5629      1.00000
     81      -4.3143      1.00000
     82      -4.2677      1.00000
     83      -4.2325      1.00000
     84      -4.2163      1.00000
     85      -4.1727      1.00000
     86      -4.1348      1.00000
     87      -4.0758      1.00000
     88      -4.0350      1.00000
     89      -4.0060      1.00000
     90      -3.8912      1.00000
     91      -3.8216      1.00000
     92      -3.7796      1.00000
     93      -3.7459      1.00000
     94      -3.5651      1.00000
     95      -3.5285      1.00000
     96      -3.4709      1.00000
     97      -3.0955      1.00000
     98      -3.0737      1.00000
     99      -2.9377      1.00000
    100      -2.8558      1.00000
    101      -2.7649      1.00000
    102      -2.7345      1.00000
    103      -2.7189      1.00000
    104      -2.6009      1.00000
    105      -2.3031      1.00000
    106      -2.1310      1.00000
    107      -1.9092      1.00000
    108      -1.8815      1.00000
    109      -1.6599      1.00000
    110      -1.6253      1.00000
    111      -1.6008      1.00000
    112      -1.5372      1.00000
    113      -1.5283      1.00000
    114      -1.3530      1.00000
    115      -1.1875      1.00000
    116      -1.0203      1.00000
    117      -0.7571      1.00000
    118      -0.4248      1.00000
    119      -0.1324      1.00000
    120       0.0715      1.00000
    121       1.2791      0.00000
    122       1.3180      0.00000
    123       1.6088      0.00000
    124       1.6294      0.00000
    125       2.4098      0.00000
    126       2.4614      0.00000
    127       2.5023      0.00000
    128       2.6022      0.00000
    129       2.6180      0.00000
    130       2.6251      0.00000
    131       2.7302      0.00000
    132       2.8187      0.00000
    133       2.9066      0.00000
    134       2.9619      0.00000
    135       3.0480      0.00000
    136       3.0907      0.00000
    137       3.1013      0.00000
    138       3.3886      0.00000
    139       3.7006      0.00000
    140       3.7940      0.00000
    141       3.8669      0.00000
    142       3.8922      0.00000
    143       3.9174      0.00000
    144       3.9629      0.00000
    145       4.0528      0.00000
    146       4.0848      0.00000
    147       4.1313      0.00000
    148       4.2406      0.00000
    149       4.3077      0.00000
    150       4.6168      0.00000
    151       4.6977      0.00000
    152       4.8234      0.00000
    153       4.8613      0.00000
    154       5.1234      0.00000
    155       5.3689      0.00000
    156       5.4202      0.00000
    157       5.9594      0.00000
    158       6.1866      0.00000
    159       6.5931      0.00000
    160       6.6073      0.00000

 k-point     3 :       0.2500   -0.2500    0.2500
  band No.  band energies     occupation 
      1     -36.1878      1.00000
      2     -36.1808      1.00000
      3     -36.1487      1.00000
      4     -36.1453      1.00000
      5     -36.1074      1.00000
      6     -36.0257      1.00000
      7     -35.0230      1.00000
      8     -35.0192      1.00000
      9     -34.9398      1.00000
     10     -34.9351      1.00000
     11     -34.6225      1.00000
     12     -34.5659      1.00000
     13     -34.4315      1.00000
     14     -34.4282      1.00000
     15     -34.2844      1.00000
     16     -34.2043      1.00000
     17     -34.1528      1.00000
     18     -34.1458      1.00000
     19     -34.0628      1.00000
     20     -34.0604      1.00000
     21     -33.8886      1.00000
     22     -33.8860      1.00000
     23     -33.6476      1.00000
     24     -33.5914      1.00000
     25     -23.9580      1.00000
     26     -23.8826      1.00000
     27     -23.6544      1.00000
     28     -23.5292      1.00000
     29     -23.4944      1.00000
     30     -23.4752      1.00000
     31     -23.4702      1.00000
     32     -23.2103      1.00000
     33     -23.1985      1.00000
     34     -22.7447      1.00000
     35     -22.7328      1.00000
     36     -22.4288      1.00000
     37     -22.4192      1.00000
     38     -22.3743      1.00000
     39     -21.5557      1.00000
     40     -21.5455      1.00000
     41     -17.8546      1.00000
     42     -16.5728      1.00000
     43     -16.3211      1.00000
     44     -16.0065      1.00000
     45     -15.9572      1.00000
     46     -15.9412      1.00000
     47     -15.5112      1.00000
     48     -14.9258      1.00000
     49      -7.4198      1.00000
     50      -7.3932      1.00000
     51      -7.2247      1.00000
     52      -7.0250      1.00000
     53      -7.0069      1.00000
     54      -6.4004      1.00000
     55      -6.2509      1.00000
     56      -6.2213      1.00000
     57      -6.2133      1.00000
     58      -6.1776      1.00000
     59      -5.9653      1.00000
     60      -5.9612      1.00000
     61      -5.8959      1.00000
     62      -5.8506      1.00000
     63      -5.7698      1.00000
     64      -5.7032      1.00000
     65      -5.3255      1.00000
     66      -5.2724      1.00000
     67      -5.2586      1.00000
     68      -5.2082      1.00000
     69      -5.1747      1.00000
     70      -5.0648      1.00000
     71      -5.0303      1.00000
     72      -4.9727      1.00000
     73      -4.9216      1.00000
     74      -4.8723      1.00000
     75      -4.7913      1.00000
     76      -4.6835      1.00000
     77      -4.6458      1.00000
     78      -4.6218      1.00000
     79      -4.6047      1.00000
     80      -4.5600      1.00000
     81      -4.3140      1.00000
     82      -4.2666      1.00000
     83      -4.2349      1.00000
     84      -4.2165      1.00000
     85      -4.1719      1.00000
     86      -4.1347      1.00000
     87      -4.0758      1.00000
     88      -4.0348      1.00000
     89      -4.0063      1.00000
     90      -3.8909      1.00000
     91      -3.8230      1.00000
     92      -3.7785      1.00000
     93      -3.7462      1.00000
     94      -3.5649      1.00000
     95      -3.5282      1.00000
     96      -3.4710      1.00000
     97      -3.0982      1.00000
     98      -3.0743      1.00000
     99      -2.9374      1.00000
    100      -2.8538      1.00000
    101      -2.7649      1.00000
    102      -2.7342      1.00000
    103      -2.7188      1.00000
    104      -2.6000      1.00000
    105      -2.3048      1.00000
    106      -2.1316      1.00000
    107      -1.9089      1.00000
    108      -1.8817      1.00000
    109      -1.6587      1.00000
    110      -1.6250      1.00000
    111      -1.6002      1.00000
    112      -1.5369      1.00000
    113      -1.5288      1.00000
    114      -1.3526      1.00000
    115      -1.1896      1.00000
    116      -1.0201      1.00000
    117      -0.7570      1.00000
    118      -0.4249      1.00000
    119      -0.1328      1.00000
    120       0.0726      1.00000
    121       1.2790      0.00000
    122       1.3180      0.00000
    123       1.6088      0.00000
    124       1.6294      0.00000
    125       2.4081      0.00000
    126       2.4617      0.00000
    127       2.5076      0.00000
    128       2.6027      0.00000
    129       2.6182      0.00000
    130       2.6248      0.00000
    131       2.7307      0.00000
    132       2.8158      0.00000
    133       2.9068      0.00000
    134       2.9592      0.00000
    135       3.0478      0.00000
    136       3.0915      0.00000
    137       3.1008      0.00000
    138       3.3879      0.00000
    139       3.6997      0.00000
    140       3.7959      0.00000
    141       3.8636      0.00000
    142       3.8904      0.00000
    143       3.9210      0.00000
    144       3.9632      0.00000
    145       4.0541      0.00000
    146       4.0857      0.00000
    147       4.1309      0.00000
    148       4.2396      0.00000
    149       4.3103      0.00000
    150       4.6160      0.00000
    151       4.6960      0.00000
    152       4.8222      0.00000
    153       4.8611      0.00000
    154       5.1270      0.00000
    155       5.3671      0.00000
    156       5.4202      0.00000
    157       5.9586      0.00000
    158       6.1871      0.00000
    159       6.5977      0.00000
    160       6.6043      0.00000

 k-point     4 :      -0.2500   -0.2500    0.2500
  band No.  band energies     occupation 
      1     -36.1878      1.00000
      2     -36.1808      1.00000
      3     -36.1487      1.00000
      4     -36.1453      1.00000
      5     -36.1074      1.00000
      6     -36.0257      1.00000
      7     -35.0230      1.00000
      8     -35.0192      1.00000
      9     -34.9398      1.00000
     10     -34.9351      1.00000
     11     -34.6225      1.00000
     12     -34.5659      1.00000
     13     -34.4315      1.00000
     14     -34.4282      1.00000
     15     -34.2844      1.00000
     16     -34.2043      1.00000
     17     -34.1528      1.00000
     18     -34.1458      1.00000
     19     -34.0628      1.00000
     20     -34.0604      1.00000
     21     -33.8886      1.00000
     22     -33.8860      1.00000
     23     -33.6476      1.00000
     24     -33.5914      1.00000
     25     -23.9580      1.00000
     26     -23.8826      1.00000
     27     -23.6544      1.00000
     28     -23.5292      1.00000
     29     -23.4944      1.00000
     30     -23.4752      1.00000
     31     -23.4702      1.00000
     32     -23.2103      1.00000
     33     -23.1985      1.00000
     34     -22.7447      1.00000
     35     -22.7328      1.00000
     36     -22.4288      1.00000
     37     -22.4192      1.00000
     38     -22.3743      1.00000
     39     -21.5557      1.00000
     40     -21.5455      1.00000
     41     -17.8546      1.00000
     42     -16.5728      1.00000
     43     -16.3211      1.00000
     44     -16.0065      1.00000
     45     -15.9572      1.00000
     46     -15.9412      1.00000
     47     -15.5112      1.00000
     48     -14.9258      1.00000
     49      -7.4198      1.00000
     50      -7.3932      1.00000
     51      -7.2247      1.00000
     52      -7.0250      1.00000
     53      -7.0069      1.00000
     54      -6.4004      1.00000
     55      -6.2509      1.00000
     56      -6.2213      1.00000
     57      -6.2133      1.00000
     58      -6.1776      1.00000
     59      -5.9653      1.00000
     60      -5.9612      1.00000
     61      -5.8959      1.00000
     62      -5.8506      1.00000
     63      -5.7698      1.00000
     64      -5.7033      1.00000
     65      -5.3255      1.00000
     66      -5.2724      1.00000
     67      -5.2586      1.00000
     68      -5.2082      1.00000
     69      -5.1747      1.00000
     70      -5.0648      1.00000
     71      -5.0303      1.00000
     72      -4.9727      1.00000
     73      -4.9216      1.00000
     74      -4.8723      1.00000
     75      -4.7913      1.00000
     76      -4.6835      1.00000
     77      -4.6458      1.00000
     78      -4.6219      1.00000
     79      -4.6047      1.00000
     80      -4.5600      1.00000
     81      -4.3140      1.00000
     82      -4.2666      1.00000
     83      -4.2350      1.00000
     84      -4.2165      1.00000
     85      -4.1719      1.00000
     86      -4.1347      1.00000
     87      -4.0758      1.00000
     88      -4.0348      1.00000
     89      -4.0063      1.00000
     90      -3.8910      1.00000
     91      -3.8230      1.00000
     92      -3.7785      1.00000
     93      -3.7462      1.00000
     94      -3.5649      1.00000
     95      -3.5282      1.00000
     96      -3.4710      1.00000
     97      -3.0982      1.00000
     98      -3.0743      1.00000
     99      -2.9374      1.00000
    100      -2.8538      1.00000
    101      -2.7649      1.00000
    102      -2.7342      1.00000
    103      -2.7188      1.00000
    104      -2.6000      1.00000
    105      -2.3048      1.00000
    106      -2.1316      1.00000
    107      -1.9089      1.00000
    108      -1.8817      1.00000
    109      -1.6587      1.00000
    110      -1.6250      1.00000
    111      -1.6002      1.00000
    112      -1.5369      1.00000
    113      -1.5288      1.00000
    114      -1.3526      1.00000
    115      -1.1896      1.00000
    116      -1.0201      1.00000
    117      -0.7570      1.00000
    118      -0.4249      1.00000
    119      -0.1328      1.00000
    120       0.0726      1.00000
    121       1.2790      0.00000
    122       1.3180      0.00000
    123       1.6088      0.00000
    124       1.6294      0.00000
    125       2.4081      0.00000
    126       2.4617      0.00000
    127       2.5076      0.00000
    128       2.6027      0.00000
    129       2.6182      0.00000
    130       2.6248      0.00000
    131       2.7306      0.00000
    132       2.8159      0.00000
    133       2.9068      0.00000
    134       2.9592      0.00000
    135       3.0478      0.00000
    136       3.0915      0.00000
    137       3.1009      0.00000
    138       3.3879      0.00000
    139       3.6997      0.00000
    140       3.7959      0.00000
    141       3.8636      0.00000
    142       3.8904      0.00000
    143       3.9210      0.00000
    144       3.9632      0.00000
    145       4.0541      0.00000
    146       4.0857      0.00000
    147       4.1309      0.00000
    148       4.2396      0.00000
    149       4.3103      0.00000
    150       4.6160      0.00000
    151       4.6960      0.00000
    152       4.8222      0.00000
    153       4.8611      0.00000
    154       5.1270      0.00000
    155       5.3671      0.00000
    156       5.4202      0.00000
    157       5.9586      0.00000
    158       6.1871      0.00000
    159       6.5977      0.00000
    160       6.6043      0.00000


--------------------------------------------------------------------------------------------------------


 soft charge-density along one line, spin component           1
         0         1         2         3         4         5         6         7         8         9
[...]
 -0.000  -0.000  -0.000  -0.000  -0.000   0.000  -0.000   0.000   0.000   0.000  -0.000   0.000  -0.000  -0.000  -0.000  -0.000
  0.000   0.000   0.000   0.000  -0.000   0.000  -0.000  -0.000  -0.000  -0.000   0.000   0.000   0.000   0.000   0.000   0.000
  0.000  -0.000  -0.000  -0.000   0.000   0.000  -0.000  -0.000  -0.000   0.000   0.000   0.000   0.000   0.000  -0.000  -0.000
  0.000   0.000   0.000   0.000  -0.000   0.000  -0.000  -0.000   0.000  -0.000   0.000   0.000   0.000  -0.000   0.000  -0.000
  0.000  -0.000   0.000  -0.000   0.000   0.000  -0.000   0.000   0.000  -0.000   0.000   0.000  -0.000  -0.000   0.000  -0.000
  0.000   0.000   0.000   0.000  -0.000  -0.000  -0.000  -0.000  -0.000  -0.000   0.000  -0.000   0.000   0.000   0.000  -0.000
 -0.000  -0.000  -0.000   0.000   0.000  -0.000   0.000   0.000   0.000  -0.000   0.000  -0.000  -0.000  -0.000  -0.000   0.000
  0.000  -0.000  -0.000  -0.000  -0.000   0.000   0.000  -0.000   0.000  -0.000  -0.000  -0.000   0.000   0.000   0.000   0.000
  0.000  -0.000  -0.000  -0.000  -0.000  -0.000   0.000   0.000   0.000   0.000   0.000  -0.000  -0.000   0.000  -0.000   0.000


------------------------ aborting loop because EDIFF is reached ----------------------------------------


 


 total charge     
 
# of ion       s       p       d       tot
------------------------------------------
    1        0.324   6.493   1.744   8.561
    2        0.324   6.493   1.743   8.560
    3        0.306   6.466   1.763   8.535
    4        0.306   6.466   1.758   8.530
    5        0.313   6.458   1.823   8.594
    6        0.313   6.458   1.823   8.594
    7        0.301   6.447   1.707   8.455
    8        0.301   6.447   1.708   8.455
    9        1.569   3.455   0.000   5.023
   10        1.569   3.455   0.000   5.024
   11        1.574   3.484   0.000   5.058
   12        1.572   3.445   0.000   5.016
   13        1.571   3.443   0.000   5.014
   14        1.570   3.486   0.000   5.056
   15        1.568   3.441   0.000   5.010
   16        1.567   3.439   0.000   5.007
   17        1.730   4.377   0.000   6.107
   18        1.730   4.377   0.000   6.107
   19        1.730   4.380   0.000   6.110
   20        1.730   4.380   0.000   6.110
   21        1.730   4.377   0.000   6.107
   22        1.730   4.377   0.000   6.107
   23        1.730   4.380   0.000   6.110
   24        1.730   4.380   0.000   6.110
   25        1.731   4.388   0.000   6.118
   26        1.731   4.387   0.000   6.117
   27        1.731   4.387   0.000   6.118
   28        1.731   4.386   0.000   6.117
   29        1.729   4.370   0.000   6.098
   30        1.729   4.370   0.000   6.098
   31        1.732   4.391   0.000   6.123
   32        1.731   4.390   0.000   6.121
--------------------------------------------------
tot         42.729 149.472  14.069 206.270
 


 magnetization (x)
 
# of ion       s       p       d       tot
------------------------------------------
    1        0.000  -0.000  -0.000   0.000
    2       -0.000  -0.000   0.000   0.000
    3        0.000  -0.000  -0.000  -0.000
    4        0.000  -0.000   0.000   0.000
    5        0.000   0.000   0.000   0.000
    6       -0.000  -0.000  -0.000  -0.000
    7       -0.000  -0.000   0.000  -0.000
    8        0.000  -0.000   0.000   0.000
    9       -0.000   0.000   0.000   0.000
   10        0.000   0.000   0.000   0.000
   11        0.000   0.000   0.000   0.000
   12        0.000   0.000   0.000   0.000
   13        0.000   0.000   0.000   0.000
   14       -0.000  -0.000   0.000  -0.000
   15       -0.000  -0.000   0.000  -0.000
   16        0.000  -0.000   0.000  -0.000
   17        0.000  -0.000   0.000  -0.000
   18        0.000  -0.000   0.000  -0.000
   19       -0.000  -0.000   0.000  -0.000
   20       -0.000  -0.000   0.000  -0.000
   21        0.000  -0.000   0.000  -0.000
   22       -0.000   0.000   0.000   0.000
   23       -0.000  -0.000   0.000  -0.000
   24        0.000   0.000   0.000   0.000
   25        0.000  -0.000   0.000   0.000
   26        0.000   0.000   0.000   0.000
   27       -0.000  -0.000   0.000  -0.000
   28        0.000   0.000   0.000   0.000
   29        0.000  -0.000   0.000   0.000
   30        0.000  -0.000   0.000  -0.000
   31        0.000  -0.000   0.000  -0.000
   32       -0.000  -0.000   0.000  -0.000
--------------------------------------------------
tot          0.000  -0.000   0.000   0.000
 
    CHARGE:  cpu time    0.4049: real time    0.4361
    FORLOC:  cpu time    0.0110: real time    0.0096
    FORNL :  cpu time    2.0827: real time    2.0794
    STRESS:  cpu time    6.4450: real time    6.4343
    FORCOR:  cpu time    0.1310: real time    0.1304
    FORHAR:  cpu time    0.0210: real time    0.0213
    MIXING:  cpu time    0.0010: real time    0.0016
    OFIELD:  cpu time    0.0000: real time    0.0000

  FORCE on cell =-STRESS in cart. coord.  units (eV):
  Direction    XX          YY          ZZ          XY          YZ          ZX
  --------------------------------------------------------------------------------------
  Alpha Z   755.21702   755.21702   755.21702
  Ewald   -4367.59374 -4288.73803 -4097.51967    -0.01404     1.39287     0.00313
  Hartree  2688.91563  2733.63424  2849.46403    -0.00887     0.62644     0.00315
  E(xc)   -1231.80227 -1232.01566 -1232.46521     0.00003    -0.00031    -0.00001
  Local   -1957.55537 -2110.03005 -2475.82963     0.02706    -2.05476    -0.00758
  n-local  -974.82065  -969.09658  -958.76718    -0.00097     0.00544     0.00016
  augment   743.64434   753.04046   773.49623    -0.00133     0.02643     0.00040
  Kinetic  4343.99103  4357.97961  4386.40295    -0.00186     0.00649     0.00068
  Fock        0.00000     0.00000     0.00000     0.00000     0.00000     0.00000
  -------------------------------------------------------------------------------------
  Total      -0.00400    -0.00900    -0.00147     0.00002     0.00259    -0.00006
  in kB      -0.01382    -0.03110    -0.00507     0.00006     0.00897    -0.00020
  external pressure =       -0.02 kB  Pullay stress =        0.00 kB


 VOLUME and BASIS-vectors are now :
 -----------------------------------------------------------------------------
  energy-cutoff  :      700.00
  volume of cell :      463.66
      direct lattice vectors                 reciprocal lattice vectors
     7.898213669  0.001192180 -0.000149717     0.126610905  0.000019270 -0.000002717
    -0.001186432  7.795237183 -0.000718842    -0.000019363  0.128283458  0.000005872
     0.000161633 -0.000344694  7.530852056     0.000002515  0.000012245  0.132787100

  length of vectors
     7.898213760  7.795237306  7.530852065     0.126610906  0.128283460  0.132787100


 FORCES acting on ions
    electron-ion (+dipol)            ewald-force                    non-local-force                 convergence-correction
 -----------------------------------------------------------------------------------------------
   0.969E-02 0.409E+01 0.389E+02   -.956E-02 -.408E+01 -.393E+02   -.107E-03 -.690E-02 0.432E+00   0.220E-05 -.553E-04 0.262E-03
   -.115E-01 0.408E+01 -.372E+02   0.115E-01 -.407E+01 0.377E+02   -.187E-04 -.601E-02 -.460E+00   0.327E-04 -.127E-03 0.299E-03
   0.125E-01 -.597E+01 0.313E+02   -.125E-01 0.593E+01 -.316E+02   -.737E-04 0.387E-01 0.334E+00   -.216E-05 -.119E-03 0.160E-01
   0.636E-02 -.586E+01 -.256E+00   -.633E-02 0.582E+01 -.803E-01   -.304E-04 0.385E-01 0.366E+00   0.620E-05 0.144E-04 -.217E-01
   -.478E-02 0.157E+02 0.261E+02   0.478E-02 -.164E+02 -.273E+02   0.639E-04 0.693E+00 0.119E+01   -.215E-04 0.287E-02 0.401E-02
   -.283E-02 0.157E+02 -.268E+02   0.283E-02 -.164E+02 0.280E+02   -.286E-04 0.700E+00 -.118E+01   -.202E-04 0.358E-02 0.599E-03
   -.582E-02 -.226E+02 0.144E+02   0.555E-02 0.235E+02 -.143E+02   0.297E-03 -.963E+00 -.382E-01   -.667E-05 -.293E-02 -.323E-04
   0.210E-02 -.226E+02 -.135E+02   -.223E-02 0.236E+02 0.135E+02   0.136E-03 -.965E+00 0.183E-01   -.125E-04 -.295E-02 -.958E-03
   0.510E-02 0.580E+02 -.302E+01   -.601E-02 -.630E+02 0.446E+01   0.956E-03 0.505E+01 -.144E+01   0.415E-04 0.310E-02 -.502E-03
   -.556E-02 0.577E+02 0.280E+01   0.622E-02 -.628E+02 -.419E+01   -.686E-03 0.502E+01 0.137E+01   -.228E-04 0.557E-02 -.712E-03
   -.568E-01 0.273E+01 -.491E+00   0.616E-01 -.282E+01 0.504E+00   -.487E-02 0.945E-01 -.136E-01   0.217E-04 0.986E-05 -.126E-03
   -.531E-03 -.358E+01 -.468E+02   0.904E-03 0.362E+01 0.529E+02   -.379E-03 -.399E-01 -.606E+01   0.214E-06 0.185E-04 0.195E-01
   0.765E-02 -.344E+01 -.477E+02   -.785E-02 0.350E+01 0.538E+02   0.211E-03 -.643E-01 -.603E+01   0.117E-04 0.168E-03 -.183E-01
   0.368E-01 -.290E+02 0.635E-01   -.399E-01 0.343E+02 -.462E-01   0.313E-02 -.531E+01 -.211E-01   -.654E-04 -.141E-02 -.263E-02
   -.108E-02 -.154E+01 -.213E+00   0.117E-02 0.773E+00 0.222E+00   -.926E-04 0.765E+00 -.579E-02   -.504E-05 -.138E-02 -.357E-02
   -.715E-02 0.464E+01 -.240E+00   0.755E-02 -.566E+01 0.237E+00   -.387E-03 0.102E+01 0.355E-03   -.613E-05 0.256E-03 0.122E-02
   -.672E+02 -.207E+01 -.946E+00   0.744E+02 0.357E+01 0.410E+01   -.719E+01 -.150E+01 -.316E+01   0.133E-02 -.533E-04 -.146E-02
   -.669E+02 -.208E+01 0.566E+00   0.741E+02 0.358E+01 -.362E+01   -.719E+01 -.150E+01 0.305E+01   0.169E-02 -.343E-04 0.243E-03
   -.447E+02 -.679E+00 0.171E+02   0.493E+02 -.152E+00 -.189E+02   -.458E+01 0.831E+00 0.182E+01   0.726E-02 -.377E-03 0.335E-02
   -.448E+02 -.675E+00 0.740E+00   0.494E+02 -.162E+00 -.237E+01   -.457E+01 0.838E+00 0.163E+01   -.136E-01 -.210E-03 -.130E-02
   0.672E+02 -.203E+01 -.873E+00   -.744E+02 0.353E+01 0.402E+01   0.719E+01 -.150E+01 -.315E+01   -.133E-02 -.935E-04 -.146E-02
   0.669E+02 -.204E+01 0.478E+00   -.741E+02 0.353E+01 -.352E+01   0.719E+01 -.149E+01 0.304E+01   -.171E-02 -.327E-04 0.174E-03
   0.447E+02 -.682E+00 0.171E+02   -.493E+02 -.148E+00 -.189E+02   0.458E+01 0.830E+00 0.182E+01   -.725E-02 -.372E-03 0.335E-02
   0.448E+02 -.678E+00 0.743E+00   -.494E+02 -.159E+00 -.237E+01   0.457E+01 0.838E+00 0.163E+01   0.136E-01 -.188E-03 -.131E-02
   0.245E-01 -.494E+02 0.103E+02   -.261E-01 0.544E+02 -.960E+01   0.164E-02 -.499E+01 -.658E+00   0.367E-05 -.708E-02 0.263E-02
   0.200E-01 -.490E+02 0.385E+01   -.224E-01 0.540E+02 -.726E+01   0.241E-02 -.503E+01 0.342E+01   0.213E-04 0.101E-01 -.412E-03
   -.873E-02 0.504E+02 0.938E+01   0.101E-01 -.554E+02 -.871E+01   -.138E-02 0.496E+01 -.672E+00   -.169E-05 0.721E-02 0.264E-02
   -.248E-01 0.500E+02 0.474E+01   0.278E-01 -.550E+02 -.816E+01   -.308E-02 0.499E+01 0.343E+01   -.940E-06 -.100E-01 -.517E-03
   -.488E-03 -.209E+02 0.718E+01   0.413E-03 0.206E+02 -.595E+01   0.490E-04 0.319E+00 -.124E+01   -.271E-04 -.179E-02 -.132E-02
   -.575E-02 -.212E+02 -.756E+01   0.599E-02 0.209E+02 0.644E+01   -.204E-03 0.276E+00 0.113E+01   -.217E-05 -.451E-02 0.104E-03
   0.557E-01 0.333E+01 -.435E+00   -.605E-01 -.339E+01 0.414E+00   0.476E-02 0.562E-01 0.209E-01   -.534E-05 0.276E-03 -.321E-03
   -.523E-01 -.186E+02 0.890E-01   0.567E-01 0.243E+02 -.403E-01   -.435E-02 -.570E+01 -.520E-01   0.199E-05 0.516E-03 -.180E-02
 -----------------------------------------------------------------------------------------------
   0.992E-04 0.173E+01 -.520E+00   0.996E-13 -.426E-13 -.158E-12   -.168E-03 -.173E+01 0.524E+00   -.436E-04 -.212E-04 -.406E-02
 
 
 POSITION                                       TOTAL-FORCE (eV/Angst)
 -----------------------------------------------------------------------------------
      7.89836      0.00395      7.44519         0.000032      0.000038     -0.002504
      0.00016      0.00321      3.83859        -0.000008      0.000013      0.001873
      7.89758      3.89935      0.10320         0.000019      0.000112      0.002737
     -0.00050      3.89829      3.86294         0.000012      0.000434      0.007313
      3.94804      7.66094      7.45038         0.000039     -0.000694     -0.006754
      3.94807      7.66195      3.84135        -0.000049     -0.001066     -0.004097
      3.94861      3.94808      7.52309         0.000016      0.000357      0.004723
      3.94860      3.94927      3.75239         0.000001      0.000499      0.005327
      3.94807      5.88875      0.01981         0.000091     -0.000385     -0.001172
      3.94831      5.88921      3.73631        -0.000054      0.000100     -0.007922
     -0.00083      7.79293      5.64104         0.000002      0.000382     -0.000879
      7.89765      3.90446      1.88252        -0.000003      0.000054      0.005329
      7.89771      3.90609      5.64633         0.000018      0.000592      0.005966
      3.94909      0.08137      5.64638        -0.000090     -0.004950     -0.006433
      3.94854      3.88203      1.87231        -0.000005     -0.002244     -0.001021
      3.94864      3.86971      5.63789         0.000007      0.003480     -0.001692
      1.90737      0.00967      0.05781         0.000916     -0.000416     -0.004633
      1.90796      0.00989      3.70331         0.000602     -0.000124     -0.003286
      1.92962      3.88210      7.51158         0.000513     -0.000077      0.004144
      1.93016      3.88266      3.74950        -0.000113      0.000022      0.003680
      5.99079      0.01023      0.05738        -0.000881     -0.000472     -0.004819
      5.99053      0.01040      3.70368        -0.000658     -0.000141     -0.003392
      5.96764      3.88280      7.51154        -0.000483     -0.000122      0.004124
      5.96705      3.88334      3.74940         0.000117      0.000043      0.003626
      7.89785      1.90641      0.02697        -0.000025      0.000255      0.002694
      7.89799      1.90804      3.71977         0.000026      0.001145      0.005050
      7.89731      5.89482      0.02728         0.000010      0.000088      0.003139
     -0.00069      5.89206      3.71816        -0.000020     -0.000489      0.004370
      3.94875      1.91358      0.03392        -0.000050     -0.000181     -0.008867
      3.94895      1.91350      3.72332         0.000037     -0.000121     -0.001325
      7.89690      7.79611      1.87602        -0.000030      0.001070     -0.000175
      3.94938      0.11443      1.88065         0.000009      0.002799     -0.005123
 -----------------------------------------------------------------------------------
    total drift:                               -0.000112      0.000808     -0.000396


--------------------------------------------------------------------------------------------------------



  FREE ENERGIE OF THE ION-ELECTRON SYSTEM (eV)
  ---------------------------------------------------
  free  energy   TOTEN  =      -211.53729916 eV

  energy  without entropy=     -211.53729916  energy(sigma->0) =     -211.53729916
 


--------------------------------------------------------------------------------------------------------


    POTLOK:  cpu time    0.9779: real time    0.9769


--------------------------------------------------------------------------------------------------------


 stress matrix after NEB project (eV)
     -0.00400      0.00002     -0.00006
      0.00002     -0.00900      0.00259
     -0.00006      0.00259     -0.00147
  FORCES: max atom, RMS     0.008869    0.004720
  FORCE total and by dimension    0.026698    0.008867
  Stress total and by dimension    0.010612    0.009000
 Quasi-Newton relaxation of ions (Broydens 2nd method)
  g(Force)  = 0.344E-04   g(Stress)= 0.170E-06

 Reset! Starting new Quasi-Newton update for ions 


--------------------------------------------------------------------------------------------------------


  
 reached required accuracy - stopping structural energy minimisation
 writing wavefunctions
     LOOP+:  cpu time   31.1623: real time   56.1905
    4ORBIT:  cpu time    0.0000: real time    0.0000
 


 total charge     
 
# of ion       s       p       d       tot
------------------------------------------
    1        0.324   6.493   1.744   8.561
    2        0.324   6.493   1.743   8.560
    3        0.306   6.466   1.763   8.535
    4        0.306   6.466   1.758   8.530
    5        0.313   6.458   1.823   8.594
    6        0.313   6.458   1.823   8.594
    7        0.301   6.447   1.707   8.455
    8        0.301   6.447   1.708   8.455
    9        1.569   3.455   0.000   5.023
   10        1.569   3.455   0.000   5.024
   11        1.574   3.484   0.000   5.058
   12        1.572   3.445   0.000   5.016
   13        1.571   3.443   0.000   5.014
   14        1.570   3.486   0.000   5.056
   15        1.568   3.441   0.000   5.010
   16        1.567   3.439   0.000   5.007
   17        1.730   4.377   0.000   6.107
   18        1.730   4.377   0.000   6.107
   19        1.730   4.380   0.000   6.110
   20        1.730   4.380   0.000   6.110
   21        1.730   4.377   0.000   6.107
   22        1.730   4.377   0.000   6.107
   23        1.730   4.380   0.000   6.110
   24        1.730   4.380   0.000   6.110
   25        1.731   4.388   0.000   6.118
   26        1.731   4.387   0.000   6.117
   27        1.731   4.387   0.000   6.118
   28        1.731   4.386   0.000   6.117
   29        1.729   4.370   0.000   6.098
   30        1.729   4.370   0.000   6.098
   31        1.732   4.391   0.000   6.123
   32        1.731   4.390   0.000   6.121
--------------------------------------------------
tot         42.729 149.472  14.069 206.270
 


 magnetization (x)
 
# of ion       s       p       d       tot
------------------------------------------
    1        0.000  -0.000  -0.000   0.000
    2       -0.000  -0.000   0.000   0.000
    3        0.000  -0.000  -0.000  -0.000
    4        0.000  -0.000   0.000   0.000
    5        0.000   0.000   0.000   0.000
    6       -0.000  -0.000  -0.000  -0.000
    7       -0.000  -0.000   0.000  -0.000
    8        0.000  -0.000   0.000   0.000
    9       -0.000   0.000   0.000   0.000
   10        0.000   0.000   0.000   0.000
   11        0.000   0.000   0.000   0.000
   12        0.000   0.000   0.000   0.000
   13        0.000   0.000   0.000   0.000
   14       -0.000  -0.000   0.000  -0.000
   15       -0.000  -0.000   0.000  -0.000
   16        0.000  -0.000   0.000  -0.000
   17        0.000  -0.000   0.000  -0.000
   18        0.000  -0.000   0.000  -0.000
   19       -0.000  -0.000   0.000  -0.000
   20       -0.000  -0.000   0.000  -0.000
   21        0.000  -0.000   0.000  -0.000
   22       -0.000   0.000   0.000   0.000
   23       -0.000  -0.000   0.000  -0.000
   24        0.000   0.000   0.000   0.000
   25        0.000  -0.000   0.000   0.000
   26        0.000   0.000   0.000   0.000
   27       -0.000  -0.000   0.000  -0.000
   28        0.000   0.000   0.000   0.000
   29        0.000  -0.000   0.000   0.000
   30        0.000  -0.000   0.000  -0.000
   31        0.000  -0.000   0.000  -0.000
   32       -0.000  -0.000   0.000  -0.000
--------------------------------------------------
tot          0.000  -0.000   0.000   0.000
 

 total amount of memory used by VASP MPI-rank0    62287. kBytes
=======================================================================

   base      :      30000. kBytes
   nonlr-proj:       8548. kBytes
   fftplans  :       8422. kBytes
   grid      :       8783. kBytes
   one-center:        124. kBytes
   wavefun   :       6410. kBytes
 
  
  
 General timing and accounting informations for this job:
 ========================================================
  
                  Total CPU time used (sec):      125.181
                            User time (sec):       65.224
                          System time (sec):       59.957
                         Elapsed time (sec):      215.099
  
                   Maximum memory used (kb):      174856.
                   Average memory used (kb):           0.
  
                          Minor page faults:        85701
                          Major page faults:            2
                 Voluntary context switches:        29296
