LTO                                     
           1
     7.898214    0.001192   -0.000150
    -0.001186    7.795237   -0.000719
     0.000162   -0.000345    7.530852
   Ti   O    F 
   8   8  16
Direct configuration=     1
   0.99999787  0.00039776  0.98864473
   0.00000955  0.00043400  0.50971554
   0.99999438  0.50006959  0.01377099
   0.00000133  0.50010822  0.51299638
   0.49999285  0.98273863  0.98941754
   0.50000603  0.98284748  0.51018514
   0.49999320  0.50644062  0.99902722
   0.50000146  0.50657216  0.49832662
   0.49998181  0.75535260  0.00271260
   0.50000289  0.75543314  0.49621535
   0.00002926  0.99973706  0.74915292
   0.99999882  0.50073582  0.25004239
   0.99999610  0.50096688  0.74982779
   0.49998420  0.01039474  0.74977701
   0.49999739  0.49793432  0.24867637
   0.49999975  0.49637697  0.74869681
   0.24149436  0.00120402  0.00768174
   0.24155828  0.00125302  0.49175704
   0.24436584  0.49801550  0.99749365
   0.24444385  0.49806515  0.49793776
   0.75849916  0.00119642  0.00763515
   0.75845632  0.00124042  0.49181583
   0.75562327  0.49802769  0.99749806
   0.75555845  0.49807463  0.49793483
   0.99999113  0.24440854  0.00362470
   0.99999847  0.24463908  0.49398107
   0.99999909  0.75605460  0.00371482
   0.00001634  0.75587627  0.49379539
   0.49999176  0.24540473  0.00453753
   0.50000657  0.24541574  0.49444285
   0.99997855  0.99997022  0.24922698
   0.50003167  0.01461401  0.24973720
