 vasp.6.3.0 20Jan22 (build Jan 25 2022 13:20:17) complex                        
  
 executed on             LinuxIFC date 2024.06.05  15:58:56
 running on   80 total cores
 distrk:  each k-point on   80 cores,    1 groups
 distr:  one band on NCORE=   8 cores,   10 groups


--------------------------------------------------------------------------------------------------------


 INCAR:
   SYSTEM = LTO
   ISTART = 1
   ENCUT = 700.0
   IALGO = 38
   EDIFF = 1E-6
   PREC = Accurate
   ISPIN = 2
   LMAXMIX = 4
   ADDGRID = .TRUE.
   LASPH = .TRUE.
   LREAL = Auto
   ROPT = 1E-4 1E-4 1E-4
   GGA = PS
   LDAU = .TRUE.
   LDAUTYPE = 2
   LDAUL = 2   -1    -1
   LDAUU = 4.2  0.0  0.0
   LDAUJ = 0.0  0.0  0.0
   NSW = 100
   EDIFFG = -0.01
   IBRION = 1
   ISIF = 3
   ISMEAR = 0
   SIGMA = 0.01
   ISYM = 0
   LORBIT = 11
   NEDOS = 3001
   NWRITE = 2
   NCORE = 8

 POTCAR:   PAW_PBE Ti_pv 07Sep2000                
 POTCAR:   PAW_PBE O 08Apr2002                    
 POTCAR:    PAW_PBE F 08Apr2002                   
 -----------------------------------------------------------------------------
|                                                                             |
|           W    W    AA    RRRRR   N    N  II  N    N   GGGG   !!!           |
|           W    W   A  A   R    R  NN   N  II  NN   N  G    G  !!!           |
|           W    W  A    A  R    R  N N  N  II  N N  N  G       !!!           |
|           W WW W  AAAAAA  RRRRR   N  N N  II  N  N N  G  GGG   !            |
|           WW  WW  A    A  R   R   N   NN  II  N   NN  G    G                |
|           W    W  A    A  R    R  N    N  II  N    N   GGGG   !!!           |
|                                                                             |
|     You use a magnetic or noncollinear calculation, but did not specify     |
|     the initial magnetic moment with the MAGMOM tag. Note that a            |
|     default of 1 will be used for all atoms. This ferromagnetic setup       |
|     may break the symmetry of the crystal, in particular it may rule        |
|     out finding an antiferromagnetic solution. Thence, we recommend         |
|     setting the initial magnetic moment manually or verifying carefully     |
|     that this magnetic setup is desired.                                    |
|                                                                             |
 -----------------------------------------------------------------------------

 POTCAR:   PAW_PBE Ti_pv 07Sep2000                
   VRHFIN =Ti: d3 s1                                                                                
   LEXCH  = PE                                                                                      
   EATOM  =  1042.3781 eV,   76.6126 Ry                                                             
                                                                                                    
   TITEL  = PAW_PBE Ti_pv 07Sep2000                                                                 
   LULTRA =        F    use ultrasoft PP ?                                                          
   IUNSCR =        1    unscreen: 0-lin 1-nonlin 2-no                                               
   RPACOR =    2.200    partial core radius                                                         
   POMASS =   47.880; ZVAL   =   10.000    mass and valenz                                          
   RCORE  =    2.500    outmost cutoff radius                                                       
   RWIGS  =    2.500; RWIGS  =    1.323    wigner-seitz radius (au A)                               
   ENMAX  =  222.338; ENMIN  =  166.753 eV                                                          
   RCLOC  =    1.701    cutoff for local pot                                                        
   LCOR   =        T    correct aug charges                                                         
   LPAW   =        T    paw PP                                                                      
   EAUG   =  482.848                                                                                
   DEXC   =    -.008                                                                                
   RMAX   =    3.092    core radius for proj-oper                                                   
   RAUG   =    1.300    factor for augmentation sphere                                              
   RDEP   =    2.538    radius for radial grids                                                     
   QCUT   =   -4.042; QGAM   =    8.085    optimization parameters                                  
                                                                                                    
   Description                                                                                      
     l     E      TYP  RCUT    TYP  RCUT                                                            
     1   .000     23  2.300                                                                         
     1  -.100     23  2.300                                                                         
     2   .000     23  2.500                                                                         
     2   .000     23  2.500                                                                         
     0   .000     23  2.500                                                                         
     0  1.500     23  2.500                                                                         
     3   .000      7   .000                                                                         
  local pseudopotential read in
  partial core-charges read in
  atomic valenz-charges read in
  non local Contribution for L=           1  read in
    real space projection operators read in
  non local Contribution for L=           1  read in
    real space projection operators read in
  non local Contribution for L=           2  read in
    real space projection operators read in
  non local Contribution for L=           2  read in
    real space projection operators read in
  non local Contribution for L=           0  read in
    real space projection operators read in
  non local Contribution for L=           0  read in
    real space projection operators read in
    PAW grid and wavefunctions read in
 
   number of l-projection  operators is LMAX  =           6
   number of lm-projection operators is LMMAX =          18
 
 POTCAR:   PAW_PBE O 08Apr2002                    
   VRHFIN =O: s2p4                                                                                  
   LEXCH  = PE                                                                                      
   EATOM  =   432.3788 eV,   31.7789 Ry                                                             
                                                                                                    
   TITEL  = PAW_PBE O 08Apr2002                                                                     
   LULTRA =        F    use ultrasoft PP ?                                                          
   IUNSCR =        0    unscreen: 0-lin 1-nonlin 2-no                                               
   RPACOR =     .000    partial core radius                                                         
   POMASS =   16.000; ZVAL   =    6.000    mass and valenz                                          
   RCORE  =    1.520    outmost cutoff radius                                                       
   RWIGS  =    1.550; RWIGS  =     .820    wigner-seitz radius (au A)                               
   ENMAX  =  400.000; ENMIN  =  300.000 eV                                                          
   ICORE  =        2    local potential                                                             
   LCOR   =        T    correct aug charges                                                         
   LPAW   =        T    paw PP                                                                      
   EAUG   =  605.392                                                                                
   DEXC   =     .000                                                                                
   RMAX   =    2.264    core radius for proj-oper                                                   
   RAUG   =    1.300    factor for augmentation sphere                                              
   RDEP   =    1.550    radius for radial grids                                                     
   QCUT   =   -5.520; QGAM   =   11.041    optimization parameters                                  
                                                                                                    
   Description                                                                                      
     l     E      TYP  RCUT    TYP  RCUT                                                            
     0   .000     23  1.200                                                                         
     0  -.700     23  1.200                                                                         
     1   .000     23  1.520                                                                         
     1   .600     23  1.520                                                                         
     2   .000      7  1.500                                                                         
  local pseudopotential read in
  atomic valenz-charges read in
  non local Contribution for L=           0  read in
    real space projection operators read in
  non local Contribution for L=           0  read in
    real space projection operators read in
  non local Contribution for L=           1  read in
    real space projection operators read in
  non local Contribution for L=           1  read in
    real space projection operators read in
    PAW grid and wavefunctions read in
 
   number of l-projection  operators is LMAX  =           4
   number of lm-projection operators is LMMAX =           8
 
 POTCAR:    PAW_PBE F 08Apr2002                   
   VRHFIN =F: s2p5                                                                                  
   LEXCH  = PE                                                                                      
   EATOM  =   659.6475 eV,   48.4827 Ry                                                             
                                                                                                    
   TITEL  = PAW_PBE F 08Apr2002                                                                     
   LULTRA =        F    use ultrasoft PP ?                                                          
   IUNSCR =        1    unscreen: 0-lin 1-nonlin 2-no                                               
   RPACOR =    1.200    partial core radius                                                         
   POMASS =   18.998; ZVAL   =    7.000    mass and valenz                                          
   RCORE  =    1.520    outmost cutoff radius                                                       
   RWIGS  =    1.500; RWIGS  =    0.794    wigner-seitz radius (au A)                               
   ENMAX  =  400.000; ENMIN  =  300.000 eV                                                          
   ICORE  =        2    local potential                                                             
   LCOR   =        T    correct aug charges                                                         
   LPAW   =        T    paw PP                                                                      
   EAUG   =  613.614                                                                                
   RMAX   =    1.555    core radius for proj-oper                                                   
   RAUG   =    1.300    factor for augmentation sphere                                              
   RDEP   =    1.539    radius for radial grids                                                     
   RDEPT  =    1.299    core radius for aug-charge                                                  
                                                                                                    
   Atomic configuration                                                                             
    4 entries                                                                                       
     n  l   j            E        occ.                                                              
     1  0  0.50      -663.3661   2.0000                                                             
     2  0  0.50       -29.8995   2.0000                                                             
     2  1  0.50       -11.1114   5.0000                                                             
     3  2  1.50       -10.8847   0.0000                                                             
   Description                                                                                      
     l       E           TYP  RCUT    TYP  RCUT                                                     
     0    -29.8995018     23  1.200                                                                 
     0     -9.5240782     23  1.200                                                                 
     1    -11.1113914     23  1.520                                                                 
     1      1.3605826     23  1.520                                                                 
     2    -10.8846608      7  1.500                                                                 
  local pseudopotential read in
  partial core-charges read in
  partial kinetic energy density read in
  atomic valenz-charges read in
  non local Contribution for L=           0  read in
    real space projection operators read in
  non local Contribution for L=           0  read in
    real space projection operators read in
  non local Contribution for L=           1  read in
    real space projection operators read in
  non local Contribution for L=           1  read in
    real space projection operators read in
    PAW grid and wavefunctions read in
 
   number of l-projection  operators is LMAX  =           4
   number of lm-projection operators is LMMAX =           8
 
 Optimization of the real space projectors (new method)

 maximal supplied QI-value         = 15.12
 optimisation between [QCUT,QGAM] = [ 13.45, 27.06] = [ 50.69,205.06] Ry 
 Optimized for a Real-space Cutoff    1.49 Angstroem

   l    n(q)    QCUT    max X(q) W(low)/X(q) W(high)/X(q)  e(spline) 
   1     12    13.455     4.841    0.13E-05    0.83E-06    0.56E-07
   1     12    13.455     5.701    0.32E-04    0.25E-04    0.17E-06
   2     11    13.455     4.569    0.64E-05    0.34E-05    0.50E-07
   2     11    13.455    32.276    0.49E-04    0.38E-04    0.46E-06
   0     12    13.455    30.046    0.17E-04    0.41E-05    0.51E-07
   0     12    13.455    45.433    0.12E-04    0.27E-04    0.38E-06
 Optimization of the real space projectors (new method)

 maximal supplied QI-value         = 24.76
 optimisation between [QCUT,QGAM] = [ 13.37, 26.98] = [ 50.04,203.89] Ry 
 Optimized for a Real-space Cutoff    1.17 Angstroem

   l    n(q)    QCUT    max X(q) W(low)/X(q) W(high)/X(q)  e(spline) 
   0      9    13.368     4.192    0.20E-04    0.58E-05    0.56E-07
   0      9    13.368     8.473    0.60E-04    0.52E-04    0.21E-06
   1      9    13.368     2.474    0.22E-04    0.17E-04    0.28E-07
   1      9    13.368     3.912    0.94E-04    0.97E-04    0.20E-06
 Optimization of the real space projectors (new method)

 maximal supplied QI-value         = 24.76
 optimisation between [QCUT,QGAM] = [ 13.37, 26.98] = [ 50.04,203.89] Ry 
 Optimized for a Real-space Cutoff    1.17 Angstroem

   l    n(q)    QCUT    max X(q) W(low)/X(q) W(high)/X(q)  e(spline) 
   0      9    13.368    14.049    0.39E-04    0.34E-04    0.16E-06
   0      9    13.368     8.945    0.54E-04    0.47E-04    0.20E-06
   1      9    13.368     7.086    0.99E-04    0.10E-03    0.23E-06
   1      9    13.368     6.747    0.86E-04    0.89E-04    0.21E-06
 -----------------------------------------------------------------------------
|                                                                             |
|               ----> ADVICE to this user running VASP <----                  |
|                                                                             |
|     You enforced a specific xc type in the INCAR file but a different       |
|     type was found in the POTCAR file.                                      |
|     I HOPE YOU KNOW WHAT YOU ARE DOING!                                     |
|                                                                             |
 -----------------------------------------------------------------------------

 PAW_PBE Ti_pv 07Sep2000                :
 energy of atom  1       EATOM=-1042.3781
 kinetic energy error for atom=    0.0006 (will be added to EATOM!!)
 PAW_PBE O 08Apr2002                    :
 energy of atom  2       EATOM= -432.3788
 kinetic energy error for atom=    0.0091 (will be added to EATOM!!)
  PAW_PBE F 08Apr2002                   :
 energy of atom  3       EATOM= -659.6475
 kinetic energy error for atom=    0.0140 (will be added to EATOM!!)
 
 
 POSCAR: Ti27 O27 F54
  positions in direct lattice
  velocities in cartesian coordinates
 exchange correlation table for  LEXCH =       14
   RHO(1)=    0.500       N(1)  =     2000
   RHO(2)=  100.500       N(2)  =     4000
 


--------------------------------------------------------------------------------------------------------


 ion  position               nearest neighbor table
   1  0.011  0.011  0.001-  37 1.80  28 1.80  91 1.95  92 1.96  83 2.07  58 2.10
   2  0.999  0.000  0.345-  46 1.79  84 1.92  55 1.92  73 1.93  59 1.93  91 2.06
   3  0.011  1.000  0.661-  38 1.79  46 1.88  56 1.94  60 1.95  92 2.01  85 2.07
   4  0.989  0.323  1.000-  45 1.78  28 1.83  93 1.95  94 1.95  74 2.06  57 2.11
   5  0.000  0.343  0.343-  29 1.83  47 1.84  86 1.93  75 1.93  93 2.04  55 2.08
   6  0.999  0.342  0.657-  47 1.82  30 1.83  87 1.95  76 1.95  94 2.04  56 2.06
   7  0.001  0.668  1.000-  77 1.88  88 1.89  95 1.89  57 1.89  96 1.89  58 1.89
   8  0.001  0.657  0.345-  29 1.82  48 1.82  89 1.92  78 1.92  59 2.07  95 2.11
   9  1.000  0.657  0.656-  48 1.81  30 1.82  90 1.93  79 1.94  60 2.05  96 2.10
  10  0.324  0.008  0.007-  31 1.85  49 1.85  37 1.85  98 2.04  65 2.05  80 2.07
  11  0.342  0.000  0.321-  49 1.80  39 1.85  66 1.93  61 1.94  73 2.06  97 2.06
  12  0.325  0.988  0.666-  33 1.78  38 1.86  98 1.94  97 1.94  81 2.06  62 2.07
  13  0.332  0.322  0.992-  31 1.80  50 1.85  82 1.94  74 1.95  99 2.02  63 2.08
  14  0.345  0.345  0.335-  40 1.80  32 1.81 100 1.97  99 1.97  61 2.08  75 2.09
  15  0.340  0.333  0.677-  50 1.80  41 1.88  62 1.94  64 1.94  76 2.03 100 2.03
  16  0.348  0.667  0.999-  42 1.74 102 1.93 101 1.93  63 1.93  65 1.93  77 2.14
  17  0.343  0.658  0.342-  43 1.82  32 1.85  51 1.86  66 2.06 101 2.09  78 2.10
  18  0.340  0.674  0.655-  51 1.80  33 1.87  44 1.89  64 2.05  79 2.05 102 2.09
  19  0.666  0.999  0.012-  52 1.78  67 1.92  71 1.92  80 1.93  83 1.93 104 2.08
  20  0.655  0.000  0.327-  39 1.80  52 1.88  68 1.92  72 1.92 103 2.04  84 2.07
  21  0.667  0.988  0.667-  36 1.76 104 1.92  85 1.93 103 1.93  81 1.94  69 2.07
  22  0.674  0.343  0.012-  53 1.81  34 1.83  45 1.88  82 2.05 106 2.10  67 2.10
  23  0.658  0.344  0.324-  35 1.83  53 1.84  40 1.86  86 2.07  68 2.10 105 2.10
  24  0.655  0.332  0.666-  41 1.78 106 1.92 105 1.92  69 1.93  70 1.95  87 2.06
  25  0.661  0.656  0.011-  54 1.81  34 1.81  42 1.90  88 2.07 108 2.08  71 2.09
  26  0.657  0.657  0.324-  35 1.83  43 1.84  54 1.86 107 2.08  89 2.09  72 2.10
  27  0.654  0.672  0.667-  44 1.78  36 1.89 107 1.93 108 1.93  70 2.04  90 2.09
  28  0.005  0.166  0.001-   1 1.80   4 1.83
  29  0.000  0.500  0.335-   8 1.82   5 1.83
  30  0.001  0.500  0.666-   9 1.82   6 1.83
  31  0.329  0.167  0.999-  13 1.80  10 1.85
  32  0.328  0.500  0.329-  14 1.81  17 1.85
  33  0.340  0.835  0.671-  12 1.78  18 1.87
  34  0.667  0.501  0.000-  25 1.81  22 1.83
  35  0.672  0.500  0.333-  23 1.83  26 1.83
  36  0.662  0.835  0.667-  21 1.76  27 1.89
  37  0.165  0.991  0.995-   1 1.80  10 1.85
  38  0.165  1.000  0.673-   3 1.79  12 1.86
  39  0.501  0.000  0.340-  20 1.80  11 1.85
  40  0.499  0.329  0.343-  14 1.80  23 1.86
  41  0.502  0.339  0.659-  24 1.78  15 1.88
  42  0.498  0.670  0.996-  16 1.74  25 1.90
  43  0.500  0.672  0.334-  17 1.82  26 1.84
  44  0.501  0.656  0.668-  27 1.78  18 1.89
  45  0.836  0.332  0.996-   4 1.78  22 1.88
  46  0.999  0.001  0.500-   2 1.79   3 1.88
  47  0.998  0.325  0.501-   6 1.82   5 1.84
  48  0.006  0.675  0.501-   9 1.81   8 1.82
  49  0.337  0.996  0.166-  11 1.80  10 1.85
  50  0.333  0.337  0.832-  15 1.80  13 1.85
  51  0.324  0.667  0.501-  18 1.80  17 1.86
  52  0.664  0.997  0.165-  19 1.78  20 1.88
  53  0.664  0.324  0.167-  22 1.81  23 1.84
  54  0.672  0.678  0.165-  25 1.81  26 1.86
  55  1.000  0.165  0.324-   2 1.92   5 2.08
  56  0.995  0.166  0.677-   3 1.94   6 2.06
  57  0.002  0.504  1.000-   7 1.89   4 2.11
  58  0.993  0.831  0.001-   7 1.89   1 2.10
  59  0.000  0.835  0.327-   2 1.93   8 2.07
  60  0.995  0.833  0.674-   3 1.95   9 2.05
  61  0.326  0.166  0.334-  11 1.94  14 2.08
  62  0.336  0.166  0.665-  15 1.94  12 2.07
  63  0.331  0.501  0.008-  16 1.93  13 2.08
  64  0.320  0.499  0.664-  15 1.94  18 2.05
  65  0.332  0.832  0.988-  16 1.93  10 2.05
  66  0.325  0.835  0.336-  11 1.93  17 2.06
  67  0.662  0.163  0.993-  19 1.92  22 2.10
  68  0.674  0.164  0.341-  20 1.92  23 2.10
  69  0.668  0.166  0.667-  24 1.93  21 2.07
  70  0.679  0.498  0.668-  24 1.95  27 2.04
  71  0.673  0.835  0.988-  19 1.92  25 2.09
  72  0.674  0.836  0.345-  20 1.92  26 2.10
  73  0.165  0.001  0.331-   2 1.93  11 2.06
  74  0.165  0.344  0.004-  13 1.95   4 2.06
  75  0.165  0.326  0.330-   5 1.93  14 2.09
  76  0.166  0.324  0.667-   6 1.95  15 2.03
  77  0.164  0.671  0.001-   7 1.88  16 2.14
  78  0.164  0.674  0.321-   8 1.92  17 2.10
  79  0.165  0.673  0.678-   9 1.94  18 2.05
  80  0.501  0.993  0.994-  19 1.93  10 2.07
  81  0.502  0.010  0.659-  21 1.94  12 2.06
  82  0.499  0.334  0.998-  13 1.94  22 2.05
  83  0.833  1.000  0.999-  19 1.93   1 2.07
  84  0.834  1.000  0.331-   2 1.92  20 2.07
  85  0.833  0.001  0.670-  21 1.93   3 2.07
  86  0.836  0.326  0.330-   5 1.93  23 2.07
  87  0.833  0.329  0.677-   6 1.95  24 2.06
  88  0.838  0.667  0.995-   7 1.89  25 2.07
  89  0.837  0.675  0.334-   8 1.92  26 2.09
  90  0.834  0.669  0.670-   9 1.93  27 2.09
  91  0.997  0.995  0.168-   1 1.95   2 2.06
  92  0.990  0.995  0.834-   1 1.96   3 2.01
  93  0.001  0.336  0.167-   4 1.95   5 2.04
  94  0.008  0.336  0.833-   4 1.95   6 2.04
  95  0.996  0.668  0.163-   7 1.89   8 2.11
  96  0.001  0.669  0.837-   7 1.89   9 2.10
  97  0.327  0.002  0.499-  12 1.94  11 2.06
  98  0.343  0.005  0.832-  12 1.94  10 2.04
  99  0.335  0.331  0.165-  14 1.97  13 2.02
 100  0.322  0.332  0.502-  14 1.97  15 2.03
 101  0.328  0.677  0.163-  16 1.93  17 2.09
 102  0.325  0.657  0.834-  16 1.93  18 2.09
 103  0.676  0.004  0.502-  21 1.93  20 2.04
 104  0.666  0.004  0.833-  21 1.92  19 2.08
 105  0.681  0.330  0.503-  24 1.92  23 2.10
 106  0.661  0.329  0.832-  24 1.92  22 2.10
 107  0.676  0.666  0.502-  27 1.93  26 2.08
 108  0.674  0.667  0.833-  27 1.93  25 2.08
 

IMPORTANT INFORMATION: All symmetrisations will be switched off!
NOSYMM: (Re-)initialisation of all symmetry stuff for point group C_1.


----------------------------------------------------------------------------------------

                                     Primitive cell                                     

  volume of cell :    1555.8061

  direct lattice vectors                    reciprocal lattice vectors
    11.590326801  0.003652919  0.005465605     0.086278871 -0.000026508 -0.000039943
     0.003561317 11.590637185  0.000410883    -0.000027190  0.086276542 -0.000003314
     0.005361683  0.000446527 11.581174761    -0.000040717 -0.000003048  0.086347045

  length of vectors
    11.590328665 11.590637739 11.581176011     0.086278885  0.086276547  0.086347055

  position of ions in fractional coordinates (direct lattice)
     0.011493493  0.010698856  0.000918245
     0.999085411  0.000011566  0.345413707
     0.011322246  0.999821331  0.661411525
     0.988896611  0.322552667  0.999847729
     0.000469854  0.342833287  0.343335098
     0.998864551  0.342175999  0.657114119
     0.001004165  0.667526578  0.999932647
     0.001140350  0.657112722  0.344624034
     0.999791246  0.656894473  0.655780527
     0.323582041  0.008296868  0.007012738
     0.342216804  0.000471023  0.321291982
     0.325428457  0.988255288  0.666104337
     0.331773007  0.322275517  0.991504718
     0.344618858  0.344712036  0.334601354
     0.340201234  0.333241518  0.676690141
     0.348094268  0.666760857  0.998504407
     0.343382363  0.658368562  0.341846514
     0.340079348  0.674050960  0.654717443
     0.666442808  0.999073935  0.011695308
     0.655185740  0.000103093  0.326979453
     0.667055799  0.987603925  0.667278145
     0.674477048  0.342944862  0.011671959
     0.657883883  0.343506439  0.323851758
     0.655079570  0.332277738  0.666294862
     0.660769050  0.656436444  0.011373134
     0.657441005  0.657489468  0.323757876
     0.654186021  0.672354192  0.667262646
     0.005319764  0.165854115  0.000606203
     0.000337580  0.500473429  0.334646679
     0.000589087  0.499947178  0.666367023
     0.329178829  0.167340483  0.998846399
     0.328484221  0.499808017  0.329144644
     0.339763845  0.835013569  0.670528713
     0.667319161  0.500534008  0.000149707
     0.671965183  0.500259570  0.333222762
     0.661605817  0.835437761  0.666904807
     0.165257780  0.990830830  0.995334809
     0.165311304  0.999974517  0.672556929
     0.500713264  0.000137284  0.340045459
     0.499211111  0.328879290  0.343395456
     0.501534671  0.338973658  0.658890366
     0.498461302  0.669690422  0.996096517
     0.499872814  0.672461769  0.334205556
     0.501492598  0.655598955  0.667864672
     0.835559224  0.332197897  0.995855863
     0.998801112  0.000551458  0.499733624
     0.997878233  0.325245908  0.500823239
     0.006086550  0.674703070  0.500641445
     0.336948891  0.996392693  0.165788808
     0.333248592  0.336934474  0.832086577
     0.324172385  0.667482223  0.500687655
     0.664410179  0.997457201  0.165228473
     0.664193724  0.323988711  0.166607304
     0.672111613  0.677955984  0.165363599
     0.999960487  0.164575213  0.324021364
     0.995234506  0.165939160  0.677040597
     0.002491013  0.504354623  0.999938038
     0.993430575  0.830743147  0.001036767
     0.000463579  0.834833486  0.326603544
     0.994819635  0.833142650  0.673927167
     0.326070250  0.166243030  0.333822870
     0.336169512  0.166316093  0.664780057
     0.330706113  0.501262732  0.008388946
     0.320179831  0.498978320  0.663984276
     0.332174357  0.832373937  0.987787549
     0.324894265  0.835384128  0.336120185
     0.662445563  0.163322764  0.992598769
     0.673849173  0.164226944  0.340621819
     0.668169883  0.165990449  0.666808851
     0.679130754  0.498356485  0.667835153
     0.673132501  0.835084194  0.987628585
     0.674277028  0.836223329  0.345280384
     0.164629093  0.000846903  0.331126923
     0.165435178  0.343895208  0.003734866
     0.165483946  0.325946427  0.329801818
     0.165901449  0.324367445  0.666992936
     0.163531802  0.670721310  0.001219086
     0.164299702  0.673663590  0.320660060
     0.164628955  0.672889330  0.678024983
     0.501105574  0.993178195  0.993608275
     0.501642584  0.010350531  0.659398603
     0.498826104  0.334015420  0.997723888
     0.832901970  0.999931907  0.999244998
     0.834074909  0.999969244  0.330826835
     0.832892688  0.001252066  0.669794990
     0.835612302  0.325870060  0.330234867
     0.832677631  0.329225479  0.676769697
     0.838088789  0.666672238  0.994520304
     0.836707193  0.674647715  0.333902041
     0.834156013  0.669106159  0.670336882
     0.997064767  0.995195940  0.167857097
     0.989840009  0.994639077  0.833873584
     0.001380366  0.336397071  0.167255220
     0.008395075  0.336024897  0.833015214
     0.995930114  0.668331435  0.163166867
     0.001170665  0.669089606  0.836504357
     0.327206298  0.002240237  0.498832111
     0.343405876  0.005084669  0.832049798
     0.335228362  0.330776172  0.165466799
     0.321519413  0.331810368  0.502291996
     0.328111446  0.676830793  0.163428480
     0.325480319  0.656610232  0.834128798
     0.676142479  0.004295947  0.501599938
     0.665874274  0.004137064  0.832507797
     0.681288649  0.330343850  0.502825092
     0.661415932  0.329210644  0.831641688
     0.676200646  0.666036442  0.502114203
     0.674356340  0.667070968  0.832854293

  ion indices of the primitive-cell ions
   primitive index   ion index
                 1           1
                 2           2
                 3           3
                 4           4
                 5           5
                 6           6
                 7           7
                 8           8
                 9           9
                10          10
                11          11
                12          12
                13          13
                14          14
                15          15
                16          16
                17          17
                18          18
                19          19
                20          20
                21          21
                22          22
                23          23
                24          24
                25          25
                26          26
                27          27
                28          28
                29          29
                30          30
                31          31
                32          32
                33          33
                34          34
                35          35
                36          36
                37          37
                38          38
                39          39
                40          40
                41          41
                42          42
                43          43
                44          44
                45          45
                46          46
                47          47
                48          48
                49          49
                50          50
                51          51
                52          52
                53          53
                54          54
                55          55
                56          56
                57          57
                58          58
                59          59
                60          60
                61          61
                62          62
                63          63
                64          64
                65          65
                66          66
                67          67
                68          68
                69          69
                70          70
                71          71
                72          72
                73          73
                74          74
                75          75
                76          76
                77          77
                78          78
                79          79
                80          80
                81          81
                82          82
                83          83
                84          84
                85          85
                86          86
                87          87
                88          88
                89          89
                90          90
                91          91
                92          92
                93          93
                94          94
                95          95
                96          96
                97          97
                98          98
                99          99
               100         100
               101         101
               102         102
               103         103
               104         104
               105         105
               106         106
               107         107
               108         108

----------------------------------------------------------------------------------------

 
 
 KPOINTS: Title                                   

Automatic generation of k-mesh.
 Grid dimensions read from file:
 generate k-points for:    3    3    3

 Generating k-lattice:

  Cartesian coordinates                     Fractional coordinates (reciprocal lattice)
     0.028759624 -0.000008836 -0.000013314     0.333333333  0.000000000  0.000000000
    -0.000009063  0.028758847 -0.000001105     0.000000000  0.333333333 -0.000000000
    -0.000013572 -0.000001016  0.028782348    -0.000000000 -0.000000000  0.333333333

  Length of vectors
     0.028759628  0.028758849  0.028782352

  Shift w.r.t. Gamma in fractional coordinates (k-lattice)
     0.000000000  0.000000000  0.000000000

 
 Subroutine IBZKPT returns following result:
 ===========================================
 
 Found     14 irreducible k-points:
 
 Following reciprocal coordinates:
            Coordinates               Weight
  0.000000  0.000000  0.000000      1.000000
  0.333333  0.000000 -0.000000      2.000000
  0.000000  0.333333 -0.000000      2.000000
  0.333333  0.333333 -0.000000      2.000000
 -0.333333  0.333333 -0.000000      2.000000
 -0.000000 -0.000000  0.333333      2.000000
  0.333333  0.000000  0.333333      2.000000
 -0.333333 -0.000000  0.333333      2.000000
  0.000000  0.333333  0.333333      2.000000
  0.333333  0.333333  0.333333      2.000000
 -0.333333  0.333333  0.333333      2.000000
  0.000000 -0.333333  0.333333      2.000000
  0.333333 -0.333333  0.333333      2.000000
 -0.333333 -0.333333  0.333333      2.000000
 
 Following cartesian coordinates:
            Coordinates               Weight
  0.000000  0.000000  0.000000      1.000000
  0.028760 -0.000009 -0.000013      2.000000
 -0.000009  0.028759 -0.000001      2.000000
  0.028751  0.028750 -0.000014      2.000000
 -0.028769  0.028768  0.000012      2.000000
 -0.000014 -0.000001  0.028782      2.000000
  0.028746 -0.000010  0.028769      2.000000
 -0.028773  0.000008  0.028796      2.000000
 -0.000023  0.028758  0.028781      2.000000
  0.028737  0.028749  0.028768      2.000000
 -0.028782  0.028767  0.028795      2.000000
 -0.000005 -0.028760  0.028783      2.000000
  0.028755 -0.028769  0.028770      2.000000
 -0.028764 -0.028751  0.028797      2.000000
 


--------------------------------------------------------------------------------------------------------




 Dimension of arrays:
   k-points           NKPTS =     14   k-points in BZ     NKDIM =     14   number of bands    NBANDS=    540
   number of dos      NEDOS =   3001   number of ions     NIONS =    108
   non local maximal  LDIM  =      6   non local SUM 2l+1 LMDIM =     18
   total plane-waves  NPLWV = ******
   max r-space proj   IRMAX =   8918   max aug-charges    IRDMAX= 199812
   dimension x,y,z NGX =   100 NGY =  100 NGZ =  100
   dimension x,y,z NGXF=   200 NGYF=  200 NGZF=  200
   support grid    NGXF=   400 NGYF=  400 NGZF=  400
   ions per type =              27  27  54
   NGX,Y,Z   is equivalent  to a cutoff of  14.34, 14.34, 14.35 a.u.
   NGXF,Y,Z  is equivalent  to a cutoff of  28.69, 28.69, 28.71 a.u.

 SYSTEM =  LTO                                     
 POSCAR =  Ti27 O27 F54                            

 Startparameter for this run:
   NWRITE =      2    write-flag & timer
   PREC   = accura    normal or accurate (medium, high low for compatibility)
   ISTART =      1    job   : 0-new  1-cont  2-samecut
   ICHARG =      0    charge: 1-file 2-atom 10-const
   ISPIN  =      2    spin polarized calculation?
   LNONCOLLINEAR =      F non collinear calculations
   LSORBIT =      F    spin-orbit coupling
   INIWAV =      1    electr: 0-lowe 1-rand  2-diag
   LASPH  =      T    aspherical Exc in radial PAW
 Electronic Relaxation 1
   ENCUT  =  700.0 eV  51.45 Ry    7.17 a.u.  25.00 25.00 24.98*2*pi/ulx,y,z
   ENINI  =  700.0     initial cutoff
   ENAUG  =  613.6 eV  augmentation charge cutoff
   NELM   =     60;   NELMIN=  2; NELMDL=  0     # of ELM steps 
   EDIFF  = 0.1E-05   stopping-criterion for ELM
   LREAL  =      T    real-space projection
   NLSPLINE    = F    spline interpolate recip. space projectors
   LCOMPAT=      F    compatible to vasp.4.4
   GGA_COMPAT  = T    GGA compatible to vasp.4.4-vasp.4.6
   LMAXPAW     = -100 max onsite density
   LMAXMIX     =    4 max onsite mixed and CHGCAR
   VOSKOWN=      0    Vosko Wilk Nusair interpolation
   ROPT   =   -0.00010  -0.00010  -0.00010
 Ionic relaxation
   EDIFFG = -.1E-01   stopping-criterion for IOM
   NSW    =    100    number of steps for IOM
   NBLOCK =      1;   KBLOCK =    100    inner block; outer block 
   IBRION =      1    ionic relax: 0-MD 1-quasi-New 2-CG
   NFREE  =      0    steps in history (QN), initial steepest desc. (CG)
   ISIF   =      3    stress and relaxation
   IWAVPR =     11    prediction:  0-non 1-charg 2-wave 3-comb
   ISYM   =      0    0-nonsym 1-usesym 2-fastsym
   LCORR  =      T    Harris-Foulkes like correction to forces

   POTIM  = 0.5000    time-step for ionic-motion
   TEIN   =    0.0    initial temperature
   TEBEG  =    0.0;   TEEND  =   0.0 temperature during run
   SMASS  =  -3.00    Nose mass-parameter (am)
   estimated Nose-frequenzy (Omega)   =  0.10E-29 period in steps = 0.13E+47 mass=  -0.307E-26a.u.
   SCALEE = 1.0000    scale energy and forces
   NPACO  =    256;   APACO  = 10.0  distance and # of slots for P.C.
   PSTRESS=    0.0 pullay stress

  Mass of Ions in am
   POMASS =  47.88 16.00 19.00
  Ionic Valenz
   ZVAL   =  10.00  6.00  7.00
  Atomic Wigner-Seitz radii
   RWIGS  =  -1.00 -1.00 -1.00
  virtual crystal weights 
   VCA    =   1.00  1.00  1.00
   NELECT =     810.0000    total number of electrons
   NUPDOWN=      -1.0000    fix difference up-down

 DOS related values:
   EMIN   =  10.00;   EMAX   =-10.00  energy-range for DOS
   EFERMI =   0.00
   ISMEAR =     0;   SIGMA  =   0.01  broadening in eV -4-tet -1-fermi 0-gaus

 Electronic relaxation 2 (details)
   IALGO  =     38    algorithm
   LDIAG  =      T    sub-space diagonalisation (order eigenvalues)
   LSUBROT=      F    optimize rotation matrix (better conditioning)
   TURBO    =      0    0=normal 1=particle mesh
   IRESTART =      0    0=no restart 2=restart with 2 vectors
   NREBOOT  =      0    no. of reboots
   NMIN     =      0    reboot dimension
   EREF     =   0.00    reference energy to select bands
   IMIX   =      4    mixing-type and parameters
     AMIX     =   0.40;   BMIX     =  1.00
     AMIX_MAG =   1.60;   BMIX_MAG =  1.00
     AMIN     =   0.10
     WC   =   100.;   INIMIX=   1;  MIXPRE=   1;  MAXMIX= -45

 Intra band minimization:
   WEIMIN = 0.0010     energy-eigenvalue tresh-hold
   EBREAK =  0.46E-09  absolut break condition
   DEPER  =   0.30     relativ break condition  

   TIME   =   0.40     timestep for ELM

  volume/ion in A,a.u.               =      14.41        97.21
  Fermi-wavevector in a.u.,A,eV,Ry     =   1.316997  2.488763 23.599037  1.734480
  Thomas-Fermi vector in A             =   2.447069
 
 Write flags
   LWAVE        =      T    write WAVECAR
   LDOWNSAMPLE  =      F    k-point downsampling of WAVECAR
   LCHARG       =      T    write CHGCAR
   LVTOT        =      F    write LOCPOT, total local potential
   LVHAR        =      F    write LOCPOT, Hartree potential only
   LELF         =      F    write electronic localiz. function (ELF)
   LORBIT       =     11    0 simple, 1 ext, 2 COOP (PROOUT), +10 PAW based schemes


 Dipole corrections
   LMONO  =      F    monopole corrections only (constant potential shift)
   LDIPOL =      F    correct potential (dipole corrections)
   IDIPOL =      0    1-x, 2-y, 3-z, 4-all directions 
   EPSILON=  1.0000000 bulk dielectric constant

 LDA+U is selected, type is set to LDAUTYPE =  2
   angular momentum for each species LDAUL =     2   -1   -1
   U (eV)           for each species LDAUU =   4.2  0.0  0.0
   J (eV)           for each species LDAUJ =   0.0  0.0  0.0
 Exchange correlation treatment:
   GGA     =    PS    GGA type
   LEXCH   =    14    internal setting for exchange type
   LIBXC   =     F    Libxc                    
   VOSKOWN =     0    Vosko Wilk Nusair interpolation
   LHFCALC =     F    Hartree Fock is set to
   LHFONE  =     F    Hartree Fock one center treatment
   AEXX    =    0.0000 exact exchange contribution

 Linear response parameters
   LEPSILON=     F    determine dielectric tensor
   LRPA    =     F    only Hartree local field effects (RPA)
   LNABLA  =     F    use nabla operator in PAW spheres
   LVEL    =     F    velocity operator in full k-point grid
   CSHIFT  =0.1000    complex shift for real part using Kramers Kronig
   OMEGAMAX=  -1.0    maximum frequency
   DEG_THRESHOLD= 0.2000000E-02 threshold for treating states as degnerate
   RTIME   =   -0.100 relaxation time in fs
  (WPLASMAI=    0.000 imaginary part of plasma frequency in eV, 0.658/RTIME)
   DFIELD  = 0.0000000 0.0000000 0.0000000 field for delta impulse in time
 
  Optional k-point grid parameters
   LKPOINTS_OPT  =     F    use optional k-point grid
   KPOINTS_OPT_MODE=     1    mode for optional k-point grid
 
 Orbital magnetization related:
   ORBITALMAG=     F  switch on orbital magnetization
   LCHIMAG   =     F  perturbation theory with respect to B field
   DQ        =  0.001000  dq finite difference perturbation B field
   LLRAUG    =     F  two centre corrections for induced B field



--------------------------------------------------------------------------------------------------------


 quasi-Newton-method for relaxation of ions
 charge density and potential will be updated during run
 spin polarized calculation
 Variant of blocked Davidson
 Davidson routine will perform the subspace rotation
 perform sub-space diagonalisation
    after iterative eigenvector-optimisation
 modified Broyden-mixing scheme, WC =      100.0
 initial mixing is a Kerker type mixing with AMIX =  0.4000 and BMIX =      1.0000
 Hartree-type preconditioning will be used
 using additional bands          135
 real space projection scheme for non local part
 use partial core corrections
 calculate Harris-corrections to forces 
   (improved forces if not selfconsistent)
 use gradient corrections 
 use of overlap-Matrix (Vanderbilt PP)
 Gauss-broadening in eV      SIGMA  =   0.01


--------------------------------------------------------------------------------------------------------


  energy-cutoff  :      700.00
  volume of cell :     1555.81
      direct lattice vectors                 reciprocal lattice vectors
    11.590326801  0.003652919  0.005465605     0.086278871 -0.000026508 -0.000039943
     0.003561317 11.590637185  0.000410883    -0.000027190  0.086276542 -0.000003314
     0.005361683  0.000446527 11.581174761    -0.000040717 -0.000003048  0.086347045

  length of vectors
    11.590328665 11.590637739 11.581176011     0.086278885  0.086276547  0.086347055


 
 old parameters found on file WAVECAR:
  energy-cutoff  :      700.00
  volume of cell :     1555.81
      direct lattice vectors                 reciprocal lattice vectors
    11.590326801  0.003652919  0.005465605     0.086278871 -0.000026508 -0.000039943
     0.003561317 11.590637185  0.000410883    -0.000027190  0.086276542 -0.000003314
     0.005361683  0.000446527 11.581174761    -0.000040717 -0.000003048  0.086347045

  length of vectors

 
 k-points in units of 2pi/SCALE and weight: Title                                   
   0.00000000  0.00000000  0.00000000       0.037
   0.02875962 -0.00000884 -0.00001331       0.074
  -0.00000906  0.02875885 -0.00000110       0.074
   0.02875056  0.02875001 -0.00001442       0.074
  -0.02876869  0.02876768  0.00001221       0.074
  -0.00001357 -0.00000102  0.02878235       0.074
   0.02874605 -0.00000985  0.02876903       0.074
  -0.02877320  0.00000782  0.02879566       0.074
  -0.00002264  0.02875783  0.02878124       0.074
   0.02873699  0.02874900  0.02876793       0.074
  -0.02878226  0.02876667  0.02879456       0.074
  -0.00000451 -0.02875986  0.02878345       0.074
   0.02875511 -0.02876870  0.02877014       0.074
  -0.02876413 -0.02875103  0.02879677       0.074
 
 k-points in reciprocal lattice and weights: Title                                   
   0.00000000  0.00000000  0.00000000       0.037
   0.33333333  0.00000000 -0.00000000       0.074
   0.00000000  0.33333333 -0.00000000       0.074
   0.33333333  0.33333333 -0.00000000       0.074
  -0.33333333  0.33333333 -0.00000000       0.074
  -0.00000000 -0.00000000  0.33333333       0.074
   0.33333333  0.00000000  0.33333333       0.074
  -0.33333333 -0.00000000  0.33333333       0.074
   0.00000000  0.33333333  0.33333333       0.074
   0.33333333  0.33333333  0.33333333       0.074
  -0.33333333  0.33333333  0.33333333       0.074
   0.00000000 -0.33333333  0.33333333       0.074
   0.33333333 -0.33333333  0.33333333       0.074
  -0.33333333 -0.33333333  0.33333333       0.074
 
 position of ions in fractional coordinates (direct lattice) 
   0.01149349  0.01069886  0.00091825
   0.99908541  0.00001157  0.34541371
   0.01132225  0.99982133  0.66141152
   0.98889661  0.32255267  0.99984773
   0.00046985  0.34283329  0.34333510
   0.99886455  0.34217600  0.65711412
   0.00100417  0.66752658  0.99993265
   0.00114035  0.65711272  0.34462403
   0.99979125  0.65689447  0.65578053
   0.32358204  0.00829687  0.00701274
   0.34221680  0.00047102  0.32129198
   0.32542846  0.98825529  0.66610434
   0.33177301  0.32227552  0.99150472
   0.34461886  0.34471204  0.33460135
   0.34020123  0.33324152  0.67669014
   0.34809427  0.66676086  0.99850441
   0.34338236  0.65836856  0.34184651
   0.34007935  0.67405096  0.65471744
   0.66644281  0.99907394  0.01169531
   0.65518574  0.00010309  0.32697945
   0.66705580  0.98760393  0.66727815
   0.67447705  0.34294486  0.01167196
   0.65788388  0.34350644  0.32385176
   0.65507957  0.33227774  0.66629486
   0.66076905  0.65643644  0.01137313
   0.65744100  0.65748947  0.32375788
   0.65418602  0.67235419  0.66726265
   0.00531976  0.16585411  0.00060620
   0.00033758  0.50047343  0.33464668
   0.00058909  0.49994718  0.66636702
   0.32917883  0.16734048  0.99884640
   0.32848422  0.49980802  0.32914464
   0.33976384  0.83501357  0.67052871
   0.66731916  0.50053401  0.00014971
   0.67196518  0.50025957  0.33322276
   0.66160582  0.83543776  0.66690481
   0.16525778  0.99083083  0.99533481
   0.16531130  0.99997452  0.67255693
   0.50071326  0.00013728  0.34004546
   0.49921111  0.32887929  0.34339546
   0.50153467  0.33897366  0.65889037
   0.49846130  0.66969042  0.99609652
   0.49987281  0.67246177  0.33420556
   0.50149260  0.65559895  0.66786467
   0.83555922  0.33219790  0.99585586
   0.99880111  0.00055146  0.49973362
   0.99787823  0.32524591  0.50082324
   0.00608655  0.67470307  0.50064144
   0.33694889  0.99639269  0.16578881
   0.33324859  0.33693447  0.83208658
   0.32417239  0.66748222  0.50068766
   0.66441018  0.99745720  0.16522847
   0.66419372  0.32398871  0.16660730
   0.67211161  0.67795598  0.16536360
   0.99996049  0.16457521  0.32402136
   0.99523451  0.16593916  0.67704060
   0.00249101  0.50435462  0.99993804
   0.99343058  0.83074315  0.00103677
   0.00046358  0.83483349  0.32660354
   0.99481963  0.83314265  0.67392717
   0.32607025  0.16624303  0.33382287
   0.33616951  0.16631609  0.66478006
   0.33070611  0.50126273  0.00838895
   0.32017983  0.49897832  0.66398428
   0.33217436  0.83237394  0.98778755
   0.32489426  0.83538413  0.33612018
   0.66244556  0.16332276  0.99259877
   0.67384917  0.16422694  0.34062182
   0.66816988  0.16599045  0.66680885
   0.67913075  0.49835648  0.66783515
   0.67313250  0.83508419  0.98762858
   0.67427703  0.83622333  0.34528038
   0.16462909  0.00084690  0.33112692
   0.16543518  0.34389521  0.00373487
   0.16548395  0.32594643  0.32980182
   0.16590145  0.32436745  0.66699294
   0.16353180  0.67072131  0.00121909
   0.16429970  0.67366359  0.32066006
   0.16462895  0.67288933  0.67802498
   0.50110557  0.99317820  0.99360827
   0.50164258  0.01035053  0.65939860
   0.49882610  0.33401542  0.99772389
   0.83290197  0.99993191  0.99924500
   0.83407491  0.99996924  0.33082683
   0.83289269  0.00125207  0.66979499
   0.83561230  0.32587006  0.33023487
   0.83267763  0.32922548  0.67676970
   0.83808879  0.66667224  0.99452030
   0.83670719  0.67464772  0.33390204
   0.83415601  0.66910616  0.67033688
   0.99706477  0.99519594  0.16785710
   0.98984001  0.99463908  0.83387358
   0.00138037  0.33639707  0.16725522
   0.00839508  0.33602490  0.83301521
   0.99593011  0.66833144  0.16316687
   0.00117067  0.66908961  0.83650436
   0.32720630  0.00224024  0.49883211
   0.34340588  0.00508467  0.83204980
   0.33522836  0.33077617  0.16546680
   0.32151941  0.33181037  0.50229200
   0.32811145  0.67683079  0.16342848
   0.32548032  0.65661023  0.83412880
   0.67614248  0.00429595  0.50159994
   0.66587427  0.00413706  0.83250780
   0.68128865  0.33034385  0.50282509
   0.66141593  0.32921064  0.83164169
   0.67620065  0.66603644  0.50211420
   0.67435634  0.66707097  0.83285429
 
 position of ions in cartesian coordinates  (Angst):
   0.13325637  0.12404895  0.01070157
  11.58157845  0.00393788  4.00575711
   0.13833549 11.58890299  7.66039515
  11.46814448  3.74264975 11.58494873
   0.00850755  3.97381127  3.97636720
  11.58190841  3.96998004  7.61575344
   0.01937720  7.73750854 11.58067450
   0.01740498  7.61651320  3.99142739
  11.59376278  7.61777048  7.60044326
   3.75048875  0.09735114  0.08298772
   3.96812894  0.00685301  3.72280920
   3.77891310 11.45599469  7.71645546
   3.85182143  3.73703327 11.48473518
   3.99726684  3.99684041  3.87710195
   3.94785845  3.86402642  7.83886311
   4.04225454  7.72990060 11.56603054
   3.98409133  7.63231812  3.96113152
   3.94754168  7.81421475  7.58453283
   7.72791066 11.58234319  0.13949842
   7.59557036  0.00373426  3.79038722
   7.73848960 11.44969344  7.73191647
   7.81869332  3.97741849  0.13900233
   7.62804892  3.98400632  3.75432068
   7.59734210  3.85400118  7.72019418
   7.66092799  7.61093547  0.13559547
   7.62403351  7.62326802  3.75336001
   7.58820189  7.79570114  7.73153710
   0.06225171  1.92237457  0.00711777
   0.00748928  5.80095660  3.87580915
   0.01218103  5.79500606  7.71752159
   3.82124166  1.94123129 11.56968263
   3.81078422  5.79444028  3.81388237
   3.94454291  9.67987987  7.76771032
   7.73623052  5.80394581  0.00558675
   7.79186429  5.80093060  3.86298929
   7.67477863  9.68597057  7.72750046
   1.92425700 11.48540878 11.52845671
   1.92317930 11.59124601  7.79031373
   5.80525407  0.00357211  3.94086264
   5.78903233  3.81389744  3.97978641
   5.81769070  3.93104696  7.63360495
   5.78505512  7.76440434 11.53896740
   5.79787603  7.79623561  3.87350137
   5.81837877  7.60093975  7.73766781
   9.69092700  3.85388220 11.53788412
  11.57911268  0.01026343  5.79296171
  11.56957839  3.77367612  5.80570910
   0.07563221  7.82048428  5.79832655
   3.90978514 11.55013108  1.92228019
   3.86812140  3.90687412  9.63849991
   3.76232553  7.73795202  5.80059729
   7.70516927 11.56366534  1.91758106
   7.70026945  3.75773624  1.93327165
   7.79329429  7.86047085  1.91905680
  11.59219223  1.91132904  3.75808105
  11.53931421  1.92727843  7.84643322
   0.03602917  5.84624705 11.58067801
  11.51714912  9.63247180  0.01777802
   0.01009728  9.67639958  3.78279828
  11.53686514  9.66058910  7.81064791
   3.78164266  1.92820282  3.86791148
   3.90047115  1.92923433  7.70083973
   3.83482206  5.81116625  0.09916732
   3.71632597  5.78494275  7.69167294
   3.85826990  9.64939879 11.44189777
   3.77040794  9.68397124  3.89478559
   7.68386421  1.89587798 11.49914759
   7.81254330  1.90610853  3.94855129
   7.74847366  1.92667359  7.72614999
   7.87670291  5.77904822  7.73823224
   7.81009502  9.68205781 11.44192144
   7.81992045  9.69497847  4.00278139
   1.90988340  0.01056538  3.83573891
   1.91869252  3.98657057  0.04429963
   1.92094210  3.77867854  3.82053089
   1.92758339  3.76052923  7.72560179
   1.89778221  7.77468527  0.01528784
   1.90840565  7.80893361  3.71479499
   1.91413511  7.80012023  7.85350210
   5.81684180 11.51384229 11.51029800
   5.81777383  0.12209615  7.63935649
   5.78809657  3.87371923 11.55767834
   9.66252474 11.59333666 11.57739412
   9.67253577 11.59347523  3.83633298
   9.65709414  0.01785381  7.76156561
   9.68795080  3.78024152  3.82920873
   9.65580696  3.81927697  7.84247450
   9.72142949  7.73066159 11.52256804
   9.70190272  7.82280241  3.87182820
   9.67411782  7.75871316  7.76812267
  11.56075069 11.53867222  1.94984085
  11.48058238 11.53248882  9.66305446
   0.01809368  3.89913613  1.93715769
   0.10296472  3.89514530  9.64747873
  11.54641048  7.75009809  1.89538197
   0.02043630  7.75555266  9.68798447
   3.79511048  0.02738378  5.77885115
   3.98466562  0.06056052  9.63799313
   3.88747144  3.83520505  1.91826805
   3.73038989  3.84729236  5.81902502
   3.80620555  7.84617170  1.89476522
   3.77923400  7.61209239  9.66224012
   7.83941702  0.05248664  5.81281383
   7.72217881  0.05075533  9.64505939
   7.90023053  3.83160893  5.82716465
   7.67165822  3.81854858  9.63513803
   7.84245062  7.72248107  5.81904184
   7.82285151  7.73461283  9.64939098
 


--------------------------------------------------------------------------------------------------------


 k-point   1 :   0.0000 0.0000 0.0000  plane waves:   65173
 k-point   2 :   0.3333 0.0000-0.0000  plane waves:   65375
 k-point   3 :   0.0000 0.3333-0.0000  plane waves:   65365
 k-point   4 :   0.3333 0.3333-0.0000  plane waves:   65416
 k-point   5 :  -0.3333 0.3333-0.0000  plane waves:   65441
 k-point   6 :  -0.0000-0.0000 0.3333  plane waves:   65364
 k-point   7 :   0.3333 0.0000 0.3333  plane waves:   65393
 k-point   8 :  -0.3333-0.0000 0.3333  plane waves:   65420
 k-point   9 :   0.0000 0.3333 0.3333  plane waves:   65401
 k-point  10 :   0.3333 0.3333 0.3333  plane waves:   65476
 k-point  11 :  -0.3333 0.3333 0.3333  plane waves:   65478
 k-point  12 :   0.0000-0.3333 0.3333  plane waves:   65411
 k-point  13 :   0.3333-0.3333 0.3333  plane waves:   65475
 k-point  14 :  -0.3333-0.3333 0.3333  plane waves:   65474

 maximum and minimum number of plane-waves per node :      8240     8123

 maximum number of plane-waves:     65478
 maximum index in each direction: 
   IXMAX=   25   IYMAX=   25   IZMAX=   24
   IXMIN=  -25   IYMIN=  -25   IZMIN=  -25


 real space projection operators:
  total allocation   :      54092.09 KBytes
  max/ min on nodes  :       7371.61       6115.20


 parallel 3D FFT for wavefunctions:
    minimum data exchange during FFTs selected (reduces bandwidth)
 parallel 3D FFT for charge:
    minimum data exchange during FFTs selected (reduces bandwidth)


 total amount of memory used by VASP MPI-rank0   297732. kBytes
=======================================================================

   base      :      30000. kBytes
   nonlr-proj:      25333. kBytes
   fftplans  :      18873. kBytes
   grid      :      21088. kBytes
   one-center:        435. kBytes
   wavefun   :     202003. kBytes
 
     INWAV:  cpu time     34.1676: real time     34.2687
 Broyden mixing: mesh for mixing (old mesh)
   NGX = 51   NGY = 51   NGZ = 49
  (NGX  =200   NGY  =200   NGZ  =200)
  gives a total of 127449 points

 charge density for first step will be calculated from the start-wavefunctions


--------------------------------------------------------------------------------------------------------


 Maximum index for non-local projection operator         1369
 Maximum index for augmentation-charges         4054 (set IRDMAX)


--------------------------------------------------------------------------------------------------------


 initial charge from wavefunction
 First call to EWALD:  gamma=   0.153
 Maximum number of real-space cells 3x 3x 3
 Maximum number of reciprocal cells 3x 3x 3

    FEWALD:  cpu time      0.0036: real time      0.0036


--------------------------------------- Iteration      1(   1)  ---------------------------------------


    POTLOK:  cpu time      0.1623: real time      0.1698
    SETDIJ:  cpu time      0.9078: real time      0.9125
     EDDAV:  cpu time    108.5863: real time    108.8774
       DOS:  cpu time      0.0185: real time      0.0185
    CHARGE:  cpu time      3.9947: real time      4.0042
    MIXING:  cpu time      0.0059: real time      0.0061
    --------------------------------------------
      LOOP:  cpu time    113.6756: real time    113.9885

 eigenvalue-minimisations  : 38660
 total energy-change (2. order) :-0.7210788E+03  (-0.7178556E-06)
 number of electron     810.0000012 magnetization       0.0000000
 augmentation part      209.1274073 magnetization       0.0000000

 Broyden mixing:
  rms(total) = 0.48648E-03    rms(broyden)= 0.48036E-03
  rms(prec ) = 0.67540E-03
  weight for this iteration     100.00

 Free energy of the ion-electron system (eV)
  ---------------------------------------------------
  alpha Z        PSCENC =      2563.69400190
  Ewald energy   TEWEN  =    -43291.36947548
  -Hartree energ DENC   =    -27734.89348435
  -exchange      EXHF   =         0.00000000
  -V(xc)+E(xc)   XCENC  =      3779.47547316
  PAW double counting   =     60873.88507278   -61289.36746342
  entropy T*S    EENTRO =        -0.00000000
  eigenvalues    EBANDS =    -10892.94506499
  atomic energy  EATOM  =     75270.44210491
  Solvation  Ediel_sol  =         0.00000000
  ---------------------------------------------------
  free energy    TOTEN  =      -721.07883549 eV

  energy without entropy =     -721.07883549  energy(sigma->0) =     -721.07883549


--------------------------------------------------------------------------------------------------------




--------------------------------------- Iteration      1(   2)  ---------------------------------------


    POTLOK:  cpu time      0.2017: real time      0.2111
    SETDIJ:  cpu time      0.9072: real time      0.9093
     EDDAV:  cpu time     85.8513: real time     86.0545
       DOS:  cpu time      0.0177: real time      0.0178
    --------------------------------------------
      LOOP:  cpu time     86.9779: real time     87.1927

 eigenvalue-minimisations  : 28300
 total energy-change (2. order) : 0.4167523E-06  (-0.3708840E-06)
 number of electron     810.0000012 magnetization       0.0000000
 augmentation part      209.1274073 magnetization       0.0000000

 Free energy of the ion-electron system (eV)
  ---------------------------------------------------
  alpha Z        PSCENC =      2563.69400190
  Ewald energy   TEWEN  =    -43291.36947548
  -Hartree energ DENC   =    -27734.91846338
  -exchange      EXHF   =         0.00000000
  -V(xc)+E(xc)   XCENC  =      3779.47625401
  PAW double counting   =     60873.90266954   -61289.38444280
  entropy T*S    EENTRO =        -0.00000000
  eigenvalues    EBANDS =    -10892.92148378
  atomic energy  EATOM  =     75270.44210491
  Solvation  Ediel_sol  =         0.00000000
  ---------------------------------------------------
  free energy    TOTEN  =      -721.07883507 eV

  energy without entropy =     -721.07883507  energy(sigma->0) =     -721.07883507


--------------------------------------------------------------------------------------------------------




 average (electrostatic) potential at core
  the test charge radii are     1.0397  0.7215  0.7167
  (the norm of the test charge is              1.0000)
       1 -58.7340       2 -59.4247       3 -59.0491       4 -58.6497       5 -58.9114
       6 -58.9421       7 -60.3948       8 -58.8826       9 -58.9194      10 -58.5239
      11 -58.7938      12 -58.8026      13 -58.7860      14 -58.4159      15 -58.9696
      16 -59.0576      17 -58.1707      18 -58.4007      19 -59.3343      20 -58.9562
      21 -59.3347      22 -58.2028      23 -58.1180      24 -59.3332      25 -58.2303
      26 -58.1146      27 -58.8769      28 -74.2338      29 -74.2498      30 -74.2561
      31 -74.0847      32 -73.7645      33 -74.0653      34 -73.8173      35 -73.6586
      36 -74.4615      37 -74.1010      38 -74.3054      39 -74.2461      40 -73.7607
      41 -74.4052      42 -74.3453      43 -73.6856      44 -74.1147      45 -73.9507
      46 -74.4855      47 -74.2046      48 -74.3587      49 -74.0677      50 -74.1459
      51 -73.8356      52 -74.4590      53 -73.7328      54 -73.7363      55 -79.1335
      56 -79.0462      57 -79.5806      58 -79.5831      59 -79.1419      60 -79.0386
      61 -78.7455      62 -78.8943      63 -78.9743      64 -78.9197      65 -79.0098
      66 -78.7546      67 -78.9877      68 -78.7761      69 -79.1392      70 -79.1909
      71 -79.0048      72 -78.7850      73 -79.1443      74 -78.8250      75 -78.7813
      76 -79.0295      77 -79.5774      78 -78.7950      79 -78.9660      80 -79.0669
      81 -79.1576      82 -78.8216      83 -79.0947      84 -79.1357      85 -79.1399
      86 -78.7886      87 -78.9861      88 -79.5897      89 -78.8038      90 -78.9308
      91 -79.0315      92 -79.1061      93 -78.9216      94 -78.9336      95 -79.5984
      96 -79.5953      97 -78.8706      98 -78.9048      99 -78.7849     100 -78.7626
     101 -78.9123     102 -78.9130     103 -79.2258     104 -79.1829     105 -78.9551
     106 -78.9469     107 -78.8062     108 -78.8224
 
 
 
 E-fermi :  -0.5385     XC(G=0):  -8.9964     alpha+bet : -7.6653

 Fermi energy:        -0.5384807629

 spin component 1

 k-point     1 :       0.0000    0.0000    0.0000
  band No.  band energies     occupation 
      1     -36.2658      1.00000
      2     -36.2648      1.00000
      3     -36.2624      1.00000
      4     -35.3652      1.00000
      5     -35.3596      1.00000
      6     -35.3003      1.00000
      7     -35.2832      1.00000
      8     -35.2811      1.00000
      9     -35.2713      1.00000
     10     -35.2700      1.00000
     11     -35.2588      1.00000
     12     -35.2307      1.00000
     13     -35.1604      1.00000
     14     -35.1567      1.00000
     15     -35.1418      1.00000
     16     -35.0297      1.00000
     17     -35.0183      1.00000
     18     -35.0149      1.00000
     19     -34.9417      1.00000
     20     -34.9373      1.00000
     21     -34.9314      1.00000
     22     -34.9206      1.00000
     23     -34.9169      1.00000
     24     -34.9039      1.00000
     25     -34.9016      1.00000
     26     -34.8732      1.00000
     27     -34.8587      1.00000
     28     -34.8499      1.00000
     29     -34.8455      1.00000
     30     -34.8446      1.00000
     31     -34.8412      1.00000
     32     -34.8342      1.00000
     33     -34.8228      1.00000
     34     -34.8169      1.00000
     35     -34.8042      1.00000
     36     -34.8022      1.00000
     37     -34.7852      1.00000
     38     -34.7784      1.00000
     39     -34.7773      1.00000
     40     -34.7626      1.00000
     41     -34.7618      1.00000
     42     -34.7616      1.00000
     43     -34.7563      1.00000
     44     -34.7415      1.00000
     45     -34.7317      1.00000
     46     -34.7245      1.00000
     47     -34.7039      1.00000
     48     -34.6860      1.00000
     49     -34.6843      1.00000
     50     -34.6712      1.00000
     51     -34.6571      1.00000
     52     -34.6495      1.00000
     53     -34.6486      1.00000
     54     -34.6393      1.00000
     55     -34.6247      1.00000
     56     -34.5806      1.00000
     57     -34.5146      1.00000
     58     -34.4563      1.00000
     59     -34.4226      1.00000
     60     -34.4155      1.00000
     61     -34.4131      1.00000
     62     -34.3424      1.00000
     63     -34.3226      1.00000
     64     -34.3129      1.00000
     65     -34.2970      1.00000
     66     -34.2859      1.00000
     67     -34.2313      1.00000
     68     -34.1903      1.00000
     69     -34.1604      1.00000
     70     -34.1521      1.00000
     71     -34.1268      1.00000
     72     -34.1212      1.00000
     73     -34.1093      1.00000
     74     -34.0906      1.00000
     75     -34.0779      1.00000
     76     -34.0765      1.00000
     77     -34.0567      1.00000
     78     -34.0370      1.00000
     79     -34.0233      1.00000
     80     -34.0095      1.00000
     81     -33.9917      1.00000
     82     -23.6058      1.00000
     83     -23.3091      1.00000
     84     -23.2994      1.00000
     85     -23.1744      1.00000
     86     -23.1065      1.00000
     87     -23.0767      1.00000
     88     -23.0622      1.00000
     89     -23.0504      1.00000
     90     -23.0087      1.00000
     91     -22.9643      1.00000
     92     -22.9580      1.00000
     93     -22.8823      1.00000
     94     -22.8692      1.00000
     95     -22.8514      1.00000
     96     -22.8324      1.00000
     97     -22.7972      1.00000
     98     -22.7723      1.00000
     99     -22.7441      1.00000
    100     -22.7423      1.00000
    101     -22.7325      1.00000
    102     -22.7118      1.00000
    103     -22.6986      1.00000
    104     -22.6781      1.00000
    105     -22.6666      1.00000
    106     -22.6633      1.00000
    107     -22.6555      1.00000
    108     -22.6370      1.00000
    109     -22.6207      1.00000
    110     -22.6175      1.00000
    111     -22.5826      1.00000
    112     -22.5700      1.00000
    113     -22.5636      1.00000
    114     -22.5559      1.00000
    115     -22.5422      1.00000
    116     -22.5279      1.00000
    117     -22.5177      1.00000
    118     -22.5041      1.00000
    119     -22.4871      1.00000
    120     -22.4780      1.00000
    121     -22.4651      1.00000
    122     -22.4551      1.00000
    123     -22.4450      1.00000
    124     -22.4206      1.00000
    125     -22.4045      1.00000
    126     -22.3914      1.00000
    127     -22.3840      1.00000
    128     -22.3631      1.00000
    129     -22.3344      1.00000
    130     -22.3215      1.00000
    131     -22.2921      1.00000
    132     -22.2816      1.00000
    133     -22.2582      1.00000
    134     -22.2420      1.00000
    135     -22.2059      1.00000
    136     -16.9743      1.00000
    137     -16.9382      1.00000
    138     -16.9238      1.00000
    139     -16.9189      1.00000
    140     -16.8805      1.00000
    141     -16.7929      1.00000
    142     -16.7892      1.00000
    143     -16.7702      1.00000
    144     -16.7575      1.00000
    145     -16.7297      1.00000
    146     -16.7263      1.00000
    147     -16.6784      1.00000
    148     -16.6333      1.00000
    149     -16.6034      1.00000
    150     -16.5951      1.00000
    151     -16.5000      1.00000
    152     -16.4749      1.00000
    153     -16.4639      1.00000
    154     -16.4517      1.00000
    155     -16.4220      1.00000
    156     -16.3258      1.00000
    157     -16.3045      1.00000
    158     -16.2346      1.00000
    159     -16.1995      1.00000
    160     -16.1271      1.00000
    161     -16.0850      1.00000
    162     -16.0434      1.00000
    163      -6.9299      1.00000
    164      -6.9102      1.00000
    165      -6.8574      1.00000
    166      -6.5589      1.00000
    167      -6.4963      1.00000
    168      -6.4244      1.00000
    169      -6.4181      1.00000
    170      -6.3668      1.00000
    171      -6.3636      1.00000
    172      -6.3306      1.00000
    173      -6.2849      1.00000
    174      -6.2697      1.00000
    175      -6.2575      1.00000
    176      -6.2102      1.00000
    177      -6.1784      1.00000
    178      -6.1689      1.00000
    179      -6.1530      1.00000
    180      -6.1278      1.00000
    181      -6.0916      1.00000
    182      -6.0798      1.00000
    183      -6.0730      1.00000
    184      -6.0348      1.00000
    185      -6.0008      1.00000
    186      -5.9886      1.00000
    187      -5.9820      1.00000
    188      -5.9418      1.00000
    189      -5.9299      1.00000
    190      -5.9086      1.00000
    191      -5.8814      1.00000
    192      -5.8573      1.00000
    193      -5.8508      1.00000
    194      -5.8367      1.00000
    195      -5.8085      1.00000
    196      -5.7892      1.00000
    197      -5.7647      1.00000
    198      -5.7637      1.00000
    199      -5.7402      1.00000
    200      -5.7166      1.00000
    201      -5.7057      1.00000
    202      -5.6945      1.00000
    203      -5.6633      1.00000
    204      -5.6609      1.00000
    205      -5.6104      1.00000
    206      -5.5731      1.00000
    207      -5.5705      1.00000
    208      -5.5603      1.00000
    209      -5.5440      1.00000
    210      -5.5118      1.00000
    211      -5.5048      1.00000
    212      -5.4855      1.00000
    213      -5.4696      1.00000
    214      -5.4127      1.00000
    215      -5.4029      1.00000
    216      -5.3733      1.00000
    217      -5.3232      1.00000
    218      -5.3006      1.00000
    219      -5.2504      1.00000
    220      -5.2134      1.00000
    221      -5.1094      1.00000
    222      -5.1027      1.00000
    223      -5.0983      1.00000
    224      -5.0428      1.00000
    225      -5.0334      1.00000
    226      -5.0102      1.00000
    227      -4.9665      1.00000
    228      -4.9555      1.00000
    229      -4.9272      1.00000
    230      -4.9119      1.00000
    231      -4.8917      1.00000
    232      -4.8718      1.00000
    233      -4.8499      1.00000
    234      -4.8435      1.00000
    235      -4.8163      1.00000
    236      -4.8060      1.00000
    237      -4.7952      1.00000
    238      -4.7888      1.00000
    239      -4.7699      1.00000
    240      -4.7547      1.00000
    241      -4.7280      1.00000
    242      -4.7174      1.00000
    243      -4.6865      1.00000
    244      -4.6606      1.00000
    245      -4.6434      1.00000
    246      -4.6288      1.00000
    247      -4.6141      1.00000
    248      -4.5798      1.00000
    249      -4.5406      1.00000
    250      -4.5101      1.00000
    251      -4.4582      1.00000
    252      -4.4152      1.00000
    253      -4.4040      1.00000
    254      -4.3741      1.00000
    255      -4.3479      1.00000
    256      -4.3287      1.00000
    257      -4.2968      1.00000
    258      -4.2779      1.00000
    259      -4.2687      1.00000
    260      -4.2524      1.00000
    261      -4.2013      1.00000
    262      -4.1900      1.00000
    263      -4.1863      1.00000
    264      -4.1585      1.00000
    265      -4.1450      1.00000
    266      -4.1271      1.00000
    267      -4.1097      1.00000
    268      -4.0929      1.00000
    269      -4.0854      1.00000
    270      -4.0790      1.00000
    271      -4.0651      1.00000
    272      -4.0427      1.00000
    273      -4.0041      1.00000
    274      -3.9968      1.00000
    275      -3.9931      1.00000
    276      -3.9830      1.00000
    277      -3.9685      1.00000
    278      -3.9556      1.00000
    279      -3.9514      1.00000
    280      -3.9413      1.00000
    281      -3.9148      1.00000
    282      -3.9117      1.00000
    283      -3.9013      1.00000
    284      -3.8841      1.00000
    285      -3.8784      1.00000
    286      -3.8641      1.00000
    287      -3.8333      1.00000
    288      -3.8142      1.00000
    289      -3.8130      1.00000
    290      -3.8033      1.00000
    291      -3.7864      1.00000
    292      -3.7605      1.00000
    293      -3.7323      1.00000
    294      -3.7135      1.00000
    295      -3.7115      1.00000
    296      -3.6819      1.00000
    297      -3.6775      1.00000
    298      -3.6606      1.00000
    299      -3.6471      1.00000
    300      -3.6400      1.00000
    301      -3.6258      1.00000
    302      -3.6090      1.00000
    303      -3.6020      1.00000
    304      -3.5964      1.00000
    305      -3.5804      1.00000
    306      -3.5692      1.00000
    307      -3.5503      1.00000
    308      -3.5456      1.00000
    309      -3.5425      1.00000
    310      -3.5331      1.00000
    311      -3.5054      1.00000
    312      -3.4941      1.00000
    313      -3.4837      1.00000
    314      -3.4714      1.00000
    315      -3.4673      1.00000
    316      -3.4582      1.00000
    317      -3.4522      1.00000
    318      -3.4298      1.00000
    319      -3.4116      1.00000
    320      -3.4027      1.00000
    321      -3.3891      1.00000
    322      -3.3824      1.00000
    323      -3.3660      1.00000
    324      -3.3633      1.00000
    325      -3.3540      1.00000
    326      -3.3278      1.00000
    327      -3.3100      1.00000
    328      -3.2953      1.00000
    329      -3.2822      1.00000
    330      -3.2730      1.00000
    331      -3.2542      1.00000
    332      -3.2407      1.00000
    333      -3.2281      1.00000
    334      -3.2018      1.00000
    335      -3.1912      1.00000
    336      -3.1841      1.00000
    337      -3.1670      1.00000
    338      -3.1553      1.00000
    339      -3.1451      1.00000
    340      -3.1314      1.00000
    341      -3.1218      1.00000
    342      -3.0977      1.00000
    343      -3.0947      1.00000
    344      -3.0602      1.00000
    345      -3.0482      1.00000
    346      -3.0294      1.00000
    347      -3.0052      1.00000
    348      -2.9834      1.00000
    349      -2.9693      1.00000
    350      -2.9570      1.00000
    351      -2.9343      1.00000
    352      -2.8768      1.00000
    353      -2.7750      1.00000
    354      -2.7579      1.00000
    355      -2.6499      1.00000
    356      -2.6401      1.00000
    357      -2.5965      1.00000
    358      -2.5692      1.00000
    359      -2.5450      1.00000
    360      -2.5345      1.00000
    361      -2.5250      1.00000
    362      -2.5178      1.00000
    363      -2.4906      1.00000
    364      -2.4270      1.00000
    365      -2.3945      1.00000
    366      -2.3626      1.00000
    367      -2.3534      1.00000
    368      -2.2947      1.00000
    369      -2.2658      1.00000
    370      -2.2429      1.00000
    371      -2.1790      1.00000
    372      -2.1351      1.00000
    373      -2.1207      1.00000
    374      -2.0817      1.00000
    375      -2.0502      1.00000
    376      -2.0269      1.00000
    377      -1.9958      1.00000
    378      -1.9815      1.00000
    379      -1.9401      1.00000
    380      -1.9124      1.00000
    381      -1.9072      1.00000
    382      -1.8680      1.00000
    383      -1.8507      1.00000
    384      -1.8098      1.00000
    385      -1.7973      1.00000
    386      -1.7647      1.00000
    387      -1.7520      1.00000
    388      -1.7170      1.00000
    389      -1.6412      1.00000
    390      -1.6366      1.00000
    391      -1.6188      1.00000
    392      -1.5715      1.00000
    393      -1.5128      1.00000
    394      -1.4228      1.00000
    395      -1.3449      1.00000
    396      -1.2579      1.00000
    397      -1.2215      1.00000
    398      -1.1473      1.00000
    399      -1.1391      1.00000
    400      -1.0335      1.00000
    401      -0.9990      1.00000
    402      -0.9491      1.00000
    403      -0.8904      1.00000
    404      -0.7417      1.00000
    405      -0.5940      1.00000
    406       1.6309      0.00000
    407       1.6654      0.00000
    408       1.6862      0.00000
    409       1.8561      0.00000
    410       1.9215      0.00000
    411       2.0539      0.00000
    412       2.0727      0.00000
    413       2.0761      0.00000
    414       2.1099      0.00000
    415       2.1846      0.00000
    416       2.2167      0.00000
    417       2.3791      0.00000
    418       2.3873      0.00000
    419       2.3935      0.00000
    420       2.4122      0.00000
    421       2.4399      0.00000
    422       2.5217      0.00000
    423       2.5300      0.00000
    424       2.5460      0.00000
    425       2.5718      0.00000
    426       2.6018      0.00000
    427       2.6424      0.00000
    428       2.6451      0.00000
    429       2.6622      0.00000
    430       2.6750      0.00000
    431       2.6886      0.00000
    432       2.7440      0.00000
    433       2.7578      0.00000
    434       2.7769      0.00000
    435       2.8296      0.00000
    436       2.8386      0.00000
    437       2.8464      0.00000
    438       2.8577      0.00000
    439       2.8667      0.00000
    440       2.9034      0.00000
    441       2.9160      0.00000
    442       2.9237      0.00000
    443       2.9395      0.00000
    444       3.0047      0.00000
    445       3.0148      0.00000
    446       3.0255      0.00000
    447       3.0633      0.00000
    448       3.0784      0.00000
    449       3.0888      0.00000
    450       3.1029      0.00000
    451       3.1342      0.00000
    452       3.1610      0.00000
    453       3.1766      0.00000
    454       3.2090      0.00000
    455       3.2193      0.00000
    456       3.2474      0.00000
    457       3.2886      0.00000
    458       3.2949      0.00000
    459       3.3134      0.00000
    460       3.3456      0.00000
    461       3.3751      0.00000
    462       3.3912      0.00000
    463       3.4084      0.00000
    464       3.4349      0.00000
    465       3.4752      0.00000
    466       3.4906      0.00000
    467       3.5171      0.00000
    468       3.5448      0.00000
    469       3.5594      0.00000
    470       3.5659      0.00000
    471       3.5885      0.00000
    472       3.5946      0.00000
    473       3.6258      0.00000
    474       3.6386      0.00000
    475       3.6443      0.00000
    476       3.6578      0.00000
    477       3.6621      0.00000
    478       3.6936      0.00000
    479       3.7097      0.00000
    480       3.7199      0.00000
    481       3.7240      0.00000
    482       3.7436      0.00000
    483       3.7673      0.00000
    484       3.7924      0.00000
    485       3.8250      0.00000
    486       3.8450      0.00000
    487       3.8481      0.00000
    488       3.8971      0.00000
    489       3.9021      0.00000
    490       3.9381      0.00000
    491       3.9921      0.00000
    492       4.0028      0.00000
    493       4.0149      0.00000
    494       4.0627      0.00000
    495       4.0964      0.00000
    496       4.1089      0.00000
    497       4.1530      0.00000
    498       4.1935      0.00000
    499       4.2128      0.00000
    500       4.2606      0.00000
    501       4.3044      0.00000
    502       4.3246      0.00000
    503       4.3712      0.00000
    504       4.3883      0.00000
    505       4.4593      0.00000
    506       4.5412      0.00000
    507       4.5856      0.00000
    508       4.6210      0.00000
    509       4.6397      0.00000
    510       4.6762      0.00000
    511       4.8009      0.00000
    512       4.8756      0.00000
    513       4.9767      0.00000
    514       5.0713      0.00000
    515       5.1815      0.00000
    516       5.1900      0.00000
    517       5.2692      0.00000
    518       5.3511      0.00000
    519       5.3986      0.00000
    520       5.4557      0.00000
    521       5.5364      0.00000
    522       5.6140      0.00000
    523       5.6417      0.00000
    524       5.7385      0.00000
    525       5.7780      0.00000
    526       5.7951      0.00000
[...]
      3.94786      3.86403      7.83886         0.000408     -0.000905      0.001689
      4.04225      7.72990     11.56603         0.007921      0.000395     -0.000879
      3.98409      7.63232      3.96113         0.001048      0.000391      0.000634
      3.94754      7.81421      7.58453         0.001205      0.001226     -0.003714
      7.72791     11.58234      0.13950         0.001906      0.000633      0.000810
      7.59557      0.00373      3.79039        -0.001082     -0.000838     -0.001527
      7.73849     11.44969      7.73192         0.001233     -0.003828      0.001092
      7.81869      3.97742      0.13900        -0.001691      0.002591      0.000471
      7.62805      3.98401      3.75432         0.000249      0.001450     -0.002633
      7.59734      3.85400      7.72019        -0.000530      0.000922      0.001614
      7.66093      7.61094      0.13560         0.003976     -0.003093      0.001345
      7.62403      7.62327      3.75336         0.002051     -0.000095     -0.002879
      7.58820      7.79570      7.73154         0.000933      0.000140      0.000628
      0.06225      1.92237      0.00712         0.005392      0.005173      0.001746
      0.00749      5.80096      3.87581         0.001389      0.001192      0.002833
      0.01218      5.79501      7.71752         0.000696      0.001802     -0.003744
      3.82124      1.94123     11.56968        -0.002118     -0.003698     -0.000748
      3.81078      5.79444      3.81388         0.000736      0.001911     -0.003129
      3.94454      9.67988      7.76771         0.000986     -0.002641     -0.001257
      7.73623      5.80395      0.00559         0.001133     -0.000692      0.005357
      7.79186      5.80093      3.86299        -0.000104      0.001345     -0.002920
      7.67478      9.68597      7.72750        -0.001487     -0.000118      0.000979
      1.92426     11.48541     11.52846         0.001827     -0.001859     -0.000305
      1.92318     11.59125      7.79031         0.000179     -0.003006      0.000231
      5.80525      0.00357      3.94086         0.000710     -0.001992      0.002739
      5.78903      3.81390      3.97979         0.001744      0.001065      0.002365
      5.81769      3.93105      7.63360         0.000802     -0.000249     -0.001218
      5.78506      7.76440     11.53897        -0.006473      0.001094     -0.000948
      5.79788      7.79624      3.87350         0.000993     -0.000649      0.000974
      5.81838      7.60094      7.73767        -0.002042      0.000139     -0.002979
      9.69093      3.85388     11.53788         0.000512     -0.003470      0.001245
     11.57911      0.01026      5.79296         0.000846      0.001383     -0.001763
     11.56958      3.77368      5.80571         0.000281     -0.001578     -0.000754
      0.07563      7.82048      5.79833         0.001226      0.003814     -0.000076
      3.90979     11.55013      1.92228         0.001032     -0.000853     -0.007434
      3.86812      3.90687      9.63850        -0.001818     -0.000461     -0.003484
      3.76233      7.73795      5.80060        -0.001109     -0.000407      0.001783
      7.70517     11.56367      1.91758         0.000883      0.001569      0.001104
      7.70027      3.75774      1.93327        -0.001117     -0.003952      0.003697
      7.79329      7.86047      1.91906        -0.001869      0.001795      0.001787
     11.59219      1.91133      3.75808         0.000164      0.000756     -0.000266
     11.53931      1.92728      7.84643        -0.001332      0.000814      0.003487
      0.03603      5.84625     11.58068        -0.001181      0.000288      0.001548
     11.51715      9.63247      0.01778        -0.001364     -0.003132      0.000050
      0.01010      9.67640      3.78280         0.000949      0.000216     -0.000195
     11.53687      9.66059      7.81065        -0.000589     -0.000285      0.000238
      3.78164      1.92820      3.86791         0.001123      0.000318     -0.000397
      3.90047      1.92923      7.70084         0.000361      0.001222     -0.001272
      3.83482      5.81117      0.09917         0.000793      0.002873      0.001582
      3.71633      5.78494      7.69167        -0.003108     -0.000478     -0.002378
      3.85827      9.64940     11.44190        -0.000302     -0.001501     -0.003304
      3.77041      9.68397      3.89479        -0.000764     -0.000523      0.000029
      7.68386      1.89588     11.49915        -0.002880     -0.001722     -0.000286
      7.81254      1.90611      3.94855        -0.000757     -0.001716      0.001132
      7.74847      1.92667      7.72615         0.000035      0.000650      0.000095
      7.87670      5.77905      7.73823        -0.000394     -0.002363     -0.000082
      7.81010      9.68206     11.44192         0.002440      0.000821     -0.003535
      7.81992      9.69498      4.00278        -0.000305      0.001163      0.001814
      1.90988      0.01057      3.83574        -0.000389      0.001871     -0.001966
      1.91869      3.98657      0.04430        -0.000405      0.001995      0.000808
      1.92094      3.77868      3.82053        -0.000914      0.000623     -0.000937
      1.92758      3.76053      7.72560         0.001116     -0.000689      0.001446
      1.89778      7.77469      0.01529         0.002333      0.000513      0.001346
      1.90841      7.80893      3.71479         0.000429     -0.000246     -0.003389
      1.91414      7.80012      7.85350         0.000987      0.000977      0.002336
      5.81684     11.51384     11.51030        -0.001705     -0.002209     -0.002060
      5.81777      0.12210      7.63936        -0.000708     -0.000786     -0.003557
      5.78810      3.87372     11.55768        -0.001669      0.000688      0.000157
      9.66252     11.59334     11.57739         0.000458      0.003096     -0.000169
      9.67254     11.59348      3.83633         0.000476      0.000639     -0.001126
      9.65709      0.01785      7.76157        -0.000323     -0.000138      0.000507
      9.68795      3.78024      3.82921         0.000852     -0.000576      0.000928
      9.65581      3.81928      7.84247         0.001114     -0.000088      0.002500
      9.72143      7.73066     11.52257         0.005126     -0.000832     -0.000466
      9.70190      7.82280      3.87183         0.001015      0.000603      0.001245
      9.67412      7.75871      7.76812         0.002175     -0.000428     -0.000554
     11.56075     11.53867      1.94984        -0.000372      0.000377     -0.001150
     11.48058     11.53249      9.66305        -0.001512     -0.000700      0.002619
      0.01809      3.89914      1.93716         0.000422      0.001993      0.001777
      0.10296      3.89515      9.64748        -0.000109      0.001368      0.001356
     11.54641      7.75010      1.89538        -0.002540     -0.001523     -0.000052
      0.02044      7.75555      9.68798         0.001626     -0.001001      0.002252
      3.79511      0.02738      5.77885        -0.002385     -0.000106      0.001675
      3.98467      0.06056      9.63799         0.002278      0.001927     -0.000237
      3.88747      3.83521      1.91827         0.000208     -0.000154      0.001564
      3.73039      3.84729      5.81903        -0.002120      0.000759      0.001424
      3.80621      7.84617      1.89477         0.002779      0.002109     -0.002955
      3.77923      7.61209      9.66224        -0.000553     -0.004430      0.000972
      7.83942      0.05249      5.81281         0.001774      0.000070     -0.000061
      7.72218      0.05076      9.64506        -0.001335     -0.000654     -0.000551
      7.90023      3.83161      5.82716         0.000077      0.001487      0.001670
      7.67166      3.81855      9.63514        -0.001077      0.001067     -0.001644
      7.84245      7.72248      5.81904        -0.001108     -0.001270     -0.000292
      7.82285      7.73461      9.64939        -0.001843     -0.002258     -0.001104
 -----------------------------------------------------------------------------------
    total drift:                                0.003683     -0.002048     -0.002698


--------------------------------------------------------------------------------------------------------



  FREE ENERGIE OF THE ION-ELECTRON SYSTEM (eV)
  ---------------------------------------------------
  free  energy   TOTEN  =      -721.07883507 eV

  energy  without entropy=     -721.07883507  energy(sigma->0) =     -721.07883507
 


--------------------------------------------------------------------------------------------------------


    POTLOK:  cpu time      1.0462: real time      1.0487


--------------------------------------------------------------------------------------------------------


 Quasi-Newton relaxation of ions (Broydens 2nd method)
  g(Force)  = 0.616E-04   g(Stress)= 0.532E-04

 Reset! Starting new Quasi-Newton update for ions 


--------------------------------------------------------------------------------------------------------


  
 reached required accuracy - stopping structural energy minimisation
 writing wavefunctions
     LOOP+:  cpu time    345.9911: real time    350.1803
    4ORBIT:  cpu time      0.0000: real time      0.0000



 total charge

# of ion       s       p       d       tot
------------------------------------------
    1        0.324   6.459   1.823   8.606
    2        0.316   6.465   1.742   8.523
    3        0.319   6.459   1.766   8.544
    4        0.323   6.458   1.817   8.598
    5        0.321   6.460   1.762   8.543
    6        0.320   6.458   1.765   8.543
    7        0.318   6.493   1.686   8.497
    8        0.325   6.461   1.793   8.579
    9        0.324   6.460   1.791   8.575
   10        0.328   6.460   1.794   8.581
   11        0.322   6.460   1.775   8.556
   12        0.320   6.457   1.783   8.561
   13        0.321   6.459   1.772   8.552
   14        0.319   6.450   1.802   8.571
   15        0.319   6.461   1.751   8.530
   16        0.320   6.461   1.801   8.582
   17        0.327   6.452   1.811   8.590
   18        0.326   6.454   1.802   8.582
   19        0.317   6.463   1.751   8.530
   20        0.322   6.462   1.769   8.553
   21        0.316   6.464   1.766   8.546
   22        0.329   6.455   1.822   8.605
   23        0.327   6.451   1.817   8.595
   24        0.315   6.462   1.743   8.520
   25        0.330   6.459   1.843   8.632
   26        0.327   6.449   1.812   8.588
   27        0.320   6.457   1.775   8.551
   28        1.570   3.483   0.000   5.053
   29        1.569   3.474   0.000   5.043
   30        1.569   3.473   0.000   5.042
   31        1.570   3.475   0.000   5.044
   32        1.568   3.473   0.000   5.042
   33        1.570   3.471   0.000   5.040
   34        1.569   3.478   0.000   5.047
   35        1.568   3.474   0.000   5.042
   36        1.571   3.469   0.000   5.040
   37        1.570   3.475   0.000   5.045
   38        1.570   3.472   0.000   5.042
   39        1.570   3.473   0.000   5.043
   40        1.568   3.472   0.000   5.040
   41        1.570   3.466   0.000   5.036
   42        1.572   3.475   0.000   5.047
   43        1.568   3.473   0.000   5.041
   44        1.569   3.467   0.000   5.036
   45        1.569   3.472   0.000   5.042
   46        1.570   3.467   0.000   5.037
   47        1.569   3.472   0.000   5.041
   48        1.570   3.479   0.000   5.050
   49        1.569   3.473   0.000   5.042
   50        1.570   3.471   0.000   5.041
   51        1.570   3.474   0.000   5.043
   52        1.570   3.470   0.000   5.040
   53        1.569   3.476   0.000   5.046
   54        1.569   3.473   0.000   5.041
   55        1.730   4.377   0.000   6.107
   56        1.730   4.378   0.000   6.108
   57        1.731   4.373   0.000   6.104
   58        1.732   4.376   0.000   6.108
   59        1.730   4.378   0.000   6.109
   60        1.730   4.379   0.000   6.108
   61        1.730   4.377   0.000   6.107
   62        1.730   4.378   0.000   6.107
   63        1.730   4.377   0.000   6.106
   64        1.730   4.379   0.000   6.109
   65        1.730   4.381   0.000   6.111
   66        1.730   4.379   0.000   6.109
   67        1.730   4.375   0.000   6.105
   68        1.730   4.375   0.000   6.106
   69        1.730   4.379   0.000   6.109
   70        1.730   4.379   0.000   6.108
   71        1.730   4.375   0.000   6.106
   72        1.730   4.375   0.000   6.105
   73        1.730   4.380   0.000   6.109
   74        1.729   4.379   0.000   6.108
   75        1.730   4.376   0.000   6.106
   76        1.730   4.381   0.000   6.111
   77        1.732   4.371   0.000   6.103
   78        1.730   4.375   0.000   6.106
   79        1.730   4.380   0.000   6.109
   80        1.730   4.378   0.000   6.107
   81        1.730   4.378   0.000   6.108
   82        1.729   4.380   0.000   6.110
   83        1.730   4.378   0.000   6.108
   84        1.730   4.379   0.000   6.109
   85        1.730   4.379   0.000   6.109
   86        1.730   4.378   0.000   6.108
   87        1.730   4.378   0.000   6.107
   88        1.732   4.379   0.000   6.111
   89        1.730   4.376   0.000   6.107
   90        1.730   4.377   0.000   6.107
   91        1.729   4.380   0.000   6.109
   92        1.730   4.383   0.000   6.112
   93        1.729   4.381   0.000   6.110
   94        1.729   4.381   0.000   6.110
   95        1.732   4.374   0.000   6.105
   96        1.732   4.376   0.000   6.107
   97        1.729   4.378   0.000   6.107
   98        1.730   4.381   0.000   6.111
   99        1.729   4.382   0.000   6.110
  100        1.729   4.380   0.000   6.109
  101        1.730   4.376   0.000   6.106
  102        1.730   4.376   0.000   6.106
  103        1.730   4.382   0.000   6.112
  104        1.730   4.379   0.000   6.109
  105        1.730   4.374   0.000   6.105
  106        1.730   4.375   0.000   6.106
  107        1.730   4.376   0.000   6.106
  108        1.730   4.378   0.000   6.108
--------------------------------------------------
tot        144.492 504.573  48.134 697.199



 magnetization (x)

# of ion       s       p       d       tot
------------------------------------------
    1        0.000   0.000   0.000   0.000
    2       -0.000  -0.000  -0.000  -0.000
    3       -0.000  -0.000  -0.000  -0.000
    4       -0.000   0.000   0.000   0.000
    5        0.000   0.000   0.000   0.000
    6       -0.000  -0.000  -0.000  -0.000
    7       -0.000   0.000  -0.000   0.000
    8       -0.000  -0.000   0.000   0.000
    9        0.000   0.000  -0.000   0.000
   10       -0.000   0.000   0.000   0.000
   11       -0.000   0.000  -0.000  -0.000
   12       -0.000   0.000   0.000   0.000
   13        0.000   0.000   0.000   0.000
   14        0.000   0.000   0.000   0.000
   15       -0.000  -0.000  -0.000  -0.000
   16       -0.000   0.000   0.000   0.000
   17       -0.000   0.000  -0.000   0.000
   18        0.000   0.000  -0.000  -0.000
   19       -0.000   0.000  -0.000  -0.000
   20        0.000   0.000   0.000   0.000
   21        0.000  -0.000   0.000   0.000
   22        0.000  -0.000  -0.000  -0.000
   23       -0.000   0.000   0.000   0.000
   24       -0.000   0.000   0.000   0.000
   25       -0.000  -0.000  -0.000  -0.000
   26       -0.000  -0.000  -0.000  -0.000
   27       -0.000  -0.000  -0.000  -0.000
   28       -0.000  -0.000   0.000  -0.000
   29       -0.000   0.000   0.000  -0.000
   30        0.000   0.000   0.000   0.000
   31        0.000  -0.000   0.000  -0.000
   32        0.000   0.000   0.000   0.000
   33        0.000   0.000   0.000   0.000
   34        0.000   0.000   0.000   0.000
   35       -0.000  -0.000   0.000  -0.000
   36       -0.000   0.000   0.000   0.000
   37       -0.000  -0.000   0.000  -0.000
   38        0.000   0.000   0.000   0.000
   39        0.000  -0.000   0.000   0.000
   40        0.000  -0.000   0.000  -0.000
   41        0.000   0.000   0.000   0.000
   42        0.000   0.000   0.000   0.000
   43        0.000   0.000   0.000   0.000
   44       -0.000  -0.000   0.000  -0.000
   45       -0.000  -0.000   0.000  -0.000
   46        0.000   0.000   0.000   0.000
   47        0.000  -0.000   0.000  -0.000
   48       -0.000   0.000   0.000   0.000
   49        0.000   0.000   0.000   0.000
   50        0.000   0.000   0.000   0.000
   51       -0.000   0.000   0.000  -0.000
   52       -0.000   0.000   0.000  -0.000
   53       -0.000  -0.000   0.000  -0.000
   54        0.000   0.000   0.000   0.000
   55       -0.000   0.000   0.000  -0.000
   56        0.000  -0.000   0.000   0.000
   57        0.000   0.000   0.000   0.000
   58       -0.000   0.000   0.000  -0.000
   59        0.000  -0.000   0.000   0.000
   60       -0.000  -0.000   0.000  -0.000
   61        0.000  -0.000   0.000   0.000
   62        0.000   0.000   0.000   0.000
   63       -0.000   0.000   0.000  -0.000
   64       -0.000  -0.000   0.000  -0.000
   65        0.000   0.000   0.000   0.000
   66       -0.000  -0.000   0.000  -0.000
   67        0.000   0.000   0.000   0.000
   68       -0.000  -0.000   0.000  -0.000
   69       -0.000  -0.000   0.000  -0.000
   70        0.000  -0.000   0.000  -0.000
   71        0.000   0.000   0.000   0.000
   72       -0.000   0.000   0.000  -0.000
   73       -0.000   0.000   0.000  -0.000
   74       -0.000  -0.000   0.000  -0.000
   75       -0.000  -0.000   0.000  -0.000
   76       -0.000  -0.000   0.000  -0.000
   77        0.000   0.000   0.000   0.000
   78        0.000   0.000   0.000   0.000
   79       -0.000  -0.000   0.000  -0.000
   80       -0.000   0.000   0.000   0.000
   81       -0.000  -0.000   0.000  -0.000
   82        0.000   0.000   0.000   0.000
   83       -0.000   0.000   0.000   0.000
   84       -0.000   0.000   0.000   0.000
   85        0.000  -0.000   0.000   0.000
   86       -0.000  -0.000   0.000  -0.000
   87       -0.000   0.000   0.000   0.000
   88        0.000   0.000   0.000   0.000
   89       -0.000  -0.000   0.000  -0.000
   90       -0.000  -0.000   0.000  -0.000
   91       -0.000  -0.000   0.000  -0.000
   92       -0.000  -0.000   0.000  -0.000
   93       -0.000  -0.000   0.000  -0.000
   94       -0.000   0.000   0.000  -0.000
   95        0.000  -0.000   0.000  -0.000
   96       -0.000  -0.000   0.000  -0.000
   97        0.000   0.000   0.000   0.000
   98       -0.000  -0.000   0.000  -0.000
   99        0.000  -0.000   0.000  -0.000
  100        0.000   0.000   0.000   0.000
  101        0.000   0.000   0.000   0.000
  102        0.000  -0.000   0.000  -0.000
  103       -0.000  -0.000   0.000  -0.000
  104       -0.000   0.000   0.000   0.000
  105        0.000   0.000   0.000   0.000
  106       -0.000  -0.000   0.000  -0.000
  107        0.000   0.000   0.000   0.000
  108        0.000  -0.000   0.000  -0.000
--------------------------------------------------
tot         -0.000   0.000  -0.000  -0.000
 

 total amount of memory used by VASP MPI-rank0   297732. kBytes
=======================================================================

   base      :      30000. kBytes
   nonlr-proj:      25333. kBytes
   fftplans  :      18873. kBytes
   grid      :      21088. kBytes
   one-center:        435. kBytes
   wavefun   :     202003. kBytes
 
  
  
 General timing and accounting informations for this job:
 ========================================================
  
                  Total CPU time used (sec):      434.845
                            User time (sec):      412.938
                          System time (sec):       21.907
                         Elapsed time (sec):      440.470
  
                   Maximum memory used (kb):      812736.
                   Average memory used (kb):          N/A
  
                          Minor page faults:       143956
                          Major page faults:           13
                 Voluntary context switches:         8851
