       N       E                     dE             d eps       ncg     rms          rms(c)
DAV:   1    -0.213617415887E+03   -0.21362E+03   -0.68270E-01  2560   0.544E+00    0.710E-02
DAV:   2    -0.213617503249E+03   -0.87362E-04   -0.25935E-05  2496   0.261E-02    0.397E-02
DAV:   3    -0.213617600624E+03   -0.97375E-04   -0.18857E-05  2368   0.274E-02    0.484E-03
DAV:   4    -0.213617602043E+03   -0.14197E-05   -0.66420E-07  1408   0.568E-03    0.141E-03
DAV:   5    -0.213617602075E+03   -0.31538E-07   -0.21403E-07  1280   0.335E-03
   1 F= -.21361760E+03 E0= -.21361760E+03  d E =-.213618E+03  mag=    -0.0000
