 vasp.5.4.4.18Apr17-6-g9f103f2a35 (build Jul 16 2019 12:12:28) complex          
  
 executed on             LinuxIFC date 2020.01.06  13:34:25
 running on   96 total cores
 distrk:  each k-point on   96 cores,    1 groups
 distr:  one band on NCORES_PER_BAND=   8 cores,   12 groups


--------------------------------------------------------------------------------------------------------


 INCAR:
 POTCAR:    PAW_PBE Li_sv 10Sep2004               
 POTCAR:    PAW_PBE Ti_pv 07Sep2000               
 POTCAR:    PAW_PBE O 08Apr2002                   
 POTCAR:    PAW_PBE F 08Apr2002                   
 POTCAR:    PAW_PBE Li_sv 10Sep2004               
   VRHFIN =Li: 1s2s2p                                                           
   LEXCH  = PE                                                                  
   EATOM  =   202.7858 eV,   14.9043 Ry                                         
                                                                                
   TITEL  = PAW_PBE Li_sv 10Sep2004                                             
   LULTRA =        F    use ultrasoft PP ?                                      
   IUNSCR =        0    unscreen: 0-lin 1-nonlin 2-no                           
   RPACOR =    0.000    partial core radius                                     
   POMASS =    7.010; ZVAL   =    3.000    mass and valenz                      
   RCORE  =    1.700    outmost cutoff radius                                   
   RWIGS  =    2.050; RWIGS  =    1.085    wigner-seitz radius (au A)           
   ENMAX  =  499.034; ENMIN  =  374.276 eV                                      
   ICORE  =        2    local potential                                         
   LCOR   =        T    correct aug charges                                     
   LPAW   =        T    paw PP                                                  
   EAUG   =  628.945                                                            
   RMAX   =    1.732    core radius for proj-oper                               
   RAUG   =    1.300    factor for augmentation sphere                          
   RDEP   =    1.728    radius for radial grids                                 
   RDEPT  =    1.329    core radius for aug-charge                              
                                                                                
   Atomic configuration                                                         
    4 entries                                                                   
     n  l   j            E        occ.                                          
     1  0  0.50       -51.8549   2.0000                                         
     2  0  0.50        -2.8742   1.0000                                         
     2  1  0.50        -1.3606   0.0000                                         
     3  2  1.50        -1.3606   0.0000                                         
   Description                                                                  
     l       E           TYP  RCUT    TYP  RCUT                                 
     0    -51.8548813     23  1.400                                             
     0     -2.8742052     23  1.700                                             
     1     -1.3605826     23  1.400                                             
     2     -1.3605826     23  1.400                                             
  local pseudopotential read in
  atomic valenz-charges read in
  non local Contribution for L=           0  read in
    real space projection operators read in
  non local Contribution for L=           0  read in
    real space projection operators read in
  non local Contribution for L=           1  read in
    real space projection operators read in
    PAW grid and wavefunctions read in
 
   number of l-projection  operators is LMAX  =           3
   number of lm-projection operators is LMMAX =           5
 
 POTCAR:    PAW_PBE Ti_pv 07Sep2000               
   VRHFIN =Ti: d3 s1                                                            
   LEXCH  = PE                                                                  
   EATOM  =  1042.5995 eV,   76.6289 Ry                                         
                                                                                
   TITEL  = PAW_PBE Ti_pv 07Sep2000                                             
   LULTRA =        F    use ultrasoft PP ?                                      
   IUNSCR =        1    unscreen: 0-lin 1-nonlin 2-no                           
   RPACOR =    2.200    partial core radius                                     
   POMASS =   47.880; ZVAL   =   10.000    mass and valenz                      
   RCORE  =    2.500    outmost cutoff radius                                   
   RWIGS  =    2.500; RWIGS  =    1.323    wigner-seitz radius (au A)           
   ENMAX  =  222.335; ENMIN  =  166.751 eV                                      
   RCLOC  =    1.701    cutoff for local pot                                    
   LCOR   =        T    correct aug charges                                     
   LPAW   =        T    paw PP                                                  
   EAUG   =  482.848                                                            
   DEXC   =    0.000                                                            
   RMAX   =    2.564    core radius for proj-oper                               
   RAUG   =    1.300    factor for augmentation sphere                          
   RDEP   =    2.538    radius for radial grids                                 
   RDEPT  =    1.952    core radius for aug-charge                              
                                                                                
   Atomic configuration                                                         
    8 entries                                                                   
     n  l   j            E        occ.                                          
     1  0  0.50     -4865.3608   2.0000                                         
     2  0  0.50      -533.1368   2.0000                                         
     2  1  1.50      -440.5031   6.0000                                         
     3  0  0.50       -59.3186   2.0000                                         
     3  1  1.50       -35.7012   6.0000                                         
     3  2  2.50        -1.9157   3.0000                                         
     4  0  0.50        -3.7291   1.0000                                         
     4  3  2.50        -1.3606   0.0000                                         
   Description                                                                  
     l       E           TYP  RCUT    TYP  RCUT                                 
     1    -35.7012140     23  2.300                                             
     1     -1.3605826     23  2.300                                             
     2     -1.9156996     23  2.500                                             
     2     -0.4063033     23  2.500                                             
     0     -3.7290856     23  2.500                                             
     0     20.4087390     23  2.500                                             
  local pseudopotential read in
  partial core-charges read in
  partial kinetic energy density read in
  atomic valenz-charges read in
  non local Contribution for L=           1  read in
    real space projection operators read in
  non local Contribution for L=           1  read in
    real space projection operators read in
  non local Contribution for L=           2  read in
    real space projection operators read in
  non local Contribution for L=           2  read in
    real space projection operators read in
  non local Contribution for L=           0  read in
    real space projection operators read in
  non local Contribution for L=           0  read in
    real space projection operators read in
    PAW grid and wavefunctions read in
 
   number of l-projection  operators is LMAX  =           6
   number of lm-projection operators is LMMAX =          18
 
 POTCAR:    PAW_PBE O 08Apr2002                   
   VRHFIN =O: s2p4                                                              
   LEXCH  = PE                                                                  
   EATOM  =   432.3788 eV,   31.7789 Ry                                         
                                                                                
   TITEL  = PAW_PBE O 08Apr2002                                                 
   LULTRA =        F    use ultrasoft PP ?                                      
   IUNSCR =        1    unscreen: 0-lin 1-nonlin 2-no                           
   RPACOR =    1.200    partial core radius                                     
   POMASS =   16.000; ZVAL   =    6.000    mass and valenz                      
   RCORE  =    1.520    outmost cutoff radius                                   
   RWIGS  =    1.550; RWIGS  =    0.820    wigner-seitz radius (au A)           
   ENMAX  =  400.000; ENMIN  =  300.000 eV                                      
   ICORE  =        2    local potential                                         
   LCOR   =        T    correct aug charges                                     
   LPAW   =        T    paw PP                                                  
   EAUG   =  605.392                                                            
   DEXC   =    0.000                                                            
   RMAX   =    1.553    core radius for proj-oper                               
   RAUG   =    1.300    factor for augmentation sphere                          
   RDEP   =    1.550    radius for radial grids                                 
   RDEPT  =    1.329    core radius for aug-charge                              
                                                                                
   Atomic configuration                                                         
    4 entries                                                                   
     n  l   j            E        occ.                                          
     1  0  0.50      -514.6923   2.0000                                         
     2  0  0.50       -23.9615   2.0000                                         
     2  1  0.50        -9.0305   4.0000                                         
     3  2  1.50        -9.5241   0.0000                                         
   Description                                                                  
     l       E           TYP  RCUT    TYP  RCUT                                 
     0    -23.9615318     23  1.200                                             
     0     -9.5240782     23  1.200                                             
     1     -9.0304911     23  1.520                                             
     1      8.1634956     23  1.520                                             
     2     -9.5240782      7  1.500                                             
  local pseudopotential read in
  partial core-charges read in
  partial kinetic energy density read in
  kinetic energy density of atom read in
  atomic valenz-charges read in
  non local Contribution for L=           0  read in
    real space projection operators read in
  non local Contribution for L=           0  read in
    real space projection operators read in
  non local Contribution for L=           1  read in
    real space projection operators read in
  non local Contribution for L=           1  read in
    real space projection operators read in
    PAW grid and wavefunctions read in
 
   number of l-projection  operators is LMAX  =           4
   number of lm-projection operators is LMMAX =           8
 
 POTCAR:    PAW_PBE F 08Apr2002                   
   VRHFIN =F: s2p5                                                              
   LEXCH  = PE                                                                  
   EATOM  =   659.6475 eV,   48.4827 Ry                                         
                                                                                
   TITEL  = PAW_PBE F 08Apr2002                                                 
   LULTRA =        F    use ultrasoft PP ?                                      
   IUNSCR =        1    unscreen: 0-lin 1-nonlin 2-no                           
   RPACOR =    1.200    partial core radius                                     
   POMASS =   18.998; ZVAL   =    7.000    mass and valenz                      
   RCORE  =    1.520    outmost cutoff radius                                   
   RWIGS  =    1.500; RWIGS  =    0.794    wigner-seitz radius (au A)           
   ENMAX  =  400.000; ENMIN  =  300.000 eV                                      
   ICORE  =        2    local potential                                         
   LCOR   =        T    correct aug charges                                     
   LPAW   =        T    paw PP                                                  
   EAUG   =  613.614                                                            
   RMAX   =    1.555    core radius for proj-oper                               
   RAUG   =    1.300    factor for augmentation sphere                          
   RDEP   =    1.539    radius for radial grids                                 
   RDEPT  =    1.299    core radius for aug-charge                              
                                                                                
   Atomic configuration                                                         
    4 entries                                                                   
     n  l   j            E        occ.                                          
     1  0  0.50      -663.3661   2.0000                                         
     2  0  0.50       -29.8995   2.0000                                         
     2  1  0.50       -11.1114   5.0000                                         
     3  2  1.50       -10.8847   0.0000                                         
   Description                                                                  
     l       E           TYP  RCUT    TYP  RCUT                                 
     0    -29.8995018     23  1.200                                             
     0     -9.5240782     23  1.200                                             
     1    -11.1113914     23  1.520                                             
     1      1.3605826     23  1.520                                             
     2    -10.8846608      7  1.500                                             
  local pseudopotential read in
  partial core-charges read in
  partial kinetic energy density read in
  atomic valenz-charges read in
  non local Contribution for L=           0  read in
    real space projection operators read in
  non local Contribution for L=           0  read in
    real space projection operators read in
  non local Contribution for L=           1  read in
    real space projection operators read in
  non local Contribution for L=           1  read in
    real space projection operators read in
    PAW grid and wavefunctions read in
 
   number of l-projection  operators is LMAX  =           4
   number of lm-projection operators is LMMAX =           8
 
 Optimization of the real space projectors (new method)

 maximal supplied QI-value         = 22.11
 optimisation between [QCUT,QGAM] = [ 11.28, 22.77] = [ 35.61,145.23] Ry 
 Optimized for a Real-space Cutoff    1.31 Angstroem

   l    n(q)    QCUT    max X(q) W(low)/X(q) W(high)/X(q)  e(spline) 
   0      9    11.276    10.506    0.19E-04    0.17E-04    0.32E-07
   0      9    11.276     8.367    0.38E-04    0.40E-04    0.65E-07
   1      8    11.276     8.983    0.55E-04    0.98E-04    0.20E-06
 Optimization of the real space projectors (new method)

 maximal supplied QI-value         = 15.12
 optimisation between [QCUT,QGAM] = [ 11.34, 22.83] = [ 36.00,145.93] Ry 
 Optimized for a Real-space Cutoff    1.56 Angstroem

   l    n(q)    QCUT    max X(q) W(low)/X(q) W(high)/X(q)  e(spline) 
   1     10    11.338     4.216    0.27E-04    0.12E-04    0.66E-07
   1     10    11.338     5.422    0.81E-04    0.24E-04    0.19E-06
   2     10    11.338    72.084    0.64E-04    0.21E-03    0.51E-06
   2     10    11.338    65.965    0.63E-04    0.21E-03    0.50E-06
   0     11    11.338    41.531    0.33E-04    0.54E-04    0.13E-06
   0     11    11.338    16.290    0.26E-04    0.41E-04    0.11E-06
 Optimization of the real space projectors (new method)

 maximal supplied QI-value         = 24.76
 optimisation between [QCUT,QGAM] = [ 11.39, 22.77] = [ 36.31,145.25] Ry 
 Optimized for a Real-space Cutoff    1.20 Angstroem

   l    n(q)    QCUT    max X(q) W(low)/X(q) W(high)/X(q)  e(spline) 
   0      8    11.387    20.381    0.89E-04    0.31E-03    0.27E-06
   0      8    11.387    15.268    0.93E-04    0.32E-03    0.29E-06
   1      8    11.387     5.964    0.53E-04    0.28E-03    0.29E-06
   1      8    11.387     5.382    0.37E-04    0.22E-03    0.26E-06
 Optimization of the real space projectors (new method)

 maximal supplied QI-value         = 24.76
 optimisation between [QCUT,QGAM] = [ 11.39, 22.77] = [ 36.31,145.25] Ry 
 Optimized for a Real-space Cutoff    1.20 Angstroem

   l    n(q)    QCUT    max X(q) W(low)/X(q) W(high)/X(q)  e(spline) 
   0      8    11.387    14.049    0.69E-04    0.23E-03    0.18E-06
   0      8    11.387     8.945    0.88E-04    0.30E-03    0.26E-06
   1      8    11.387     7.086    0.62E-04    0.27E-03    0.27E-06
   1      8    11.387     6.747    0.46E-04    0.23E-03    0.25E-06

 ----------------------------------------------------------------------------- 
|                                                                             |
|  ADVICE TO THIS USER RUNNING 'VASP/VAMP'   (HEAR YOUR MASTER'S VOICE ...):  |
|                                                                             |
|      You enforced a specific xc-type in the INCAR file,                     |
|      a different type was found on the POTCAR file                          |
|          I HOPE YOU KNOW, WHAT YOU ARE  DOING                               |
|                                                                             |
 ----------------------------------------------------------------------------- 

  PAW_PBE Li_sv 10Sep2004               :
 energy of atom  1       EATOM= -202.7858
 kinetic energy error for atom=    0.0143 (will be added to EATOM!!)
  PAW_PBE Ti_pv 07Sep2000               :
 energy of atom  2       EATOM=-1042.5995
 kinetic energy error for atom=    0.0024 (will be added to EATOM!!)
  PAW_PBE O 08Apr2002                   :
 energy of atom  3       EATOM= -432.3788
 kinetic energy error for atom=    0.0224 (will be added to EATOM!!)
  PAW_PBE F 08Apr2002                   :
 energy of atom  4       EATOM= -659.6475
 kinetic energy error for atom=    0.0354 (will be added to EATOM!!)
 
 
 POSCAR: config 27                               
  positions in direct lattice
  velocities in cartesian coordinates
 exchange correlation table for  LEXCH =       14
   RHO(1)=    0.500       N(1)  =     2000
   RHO(2)=  100.500       N(2)  =     4000

 VTST: version 3.2, (02/03/18)

 CHAIN: initializing optimizer
 
 OPT: Using VASP QUASI-newton optimizer
 CHAIN: Read ICHAIN            0
 
 POSCAR: config 27                               
  positions in direct lattice
  velocities in cartesian coordinates
 


--------------------------------------------------------------------------------------------------------


 ion  position               nearest neighbor table
   1  0.437  0.616  0.623- 136 2.02  73 2.04 116 2.07 218 2.19  33 2.83   9 2.86
   2  0.995  0.995  0.994- 118 1.86  68 1.88 103 1.89 171 2.03 212 2.04 130 2.04
   3  0.999  0.992  0.493- 119 1.81  67 1.83 172 1.95 193 1.97 131 2.01 213 2.09
   4  0.006  0.496  0.998-  89 1.84 117 1.86 138 1.94 132 1.99 214 2.01 194 2.03
   5  0.995  0.504  0.508-  66 1.82 104 1.85 215 1.93 223 2.01 173 2.02 137 2.03
   6  0.494  0.993  0.999- 101 1.83 121 1.84 140 1.96 133 1.97 216 2.02 174 2.03
   7  0.501  0.009  0.499- 112 1.80 134 1.92 191 1.92 139 1.93 175 1.95 225 1.95
   8  0.504  0.495  0.998-  70 1.87 120 1.88  90 1.89 135 2.02 192 2.03 217 2.05
   9  0.493  0.497  0.493-  69 1.82 102 1.85 224 1.96 218 1.97 176 2.03 136 2.07   1 2.86
  10  0.007  0.004  0.256-  91 1.83  67 1.86 219 1.95 227 1.97 130 2.00 197 2.06
  11  0.001  0.008  0.757-  68 1.79 113 1.84 177 1.95 198 2.00 228 2.04 131 2.06
  12  0.993  0.494  0.252- 107 1.82 122 1.86 137 1.93 132 1.97 220 2.00 178 2.04
  13  0.993  0.498  0.742- 108 1.82  66 1.83 226 1.93 221 1.96 138 2.02 179 2.05
  14  0.506  0.009  0.250- 114 1.82  92 1.83 133 1.93 139 1.98 195 2.00 231 2.04
  15  0.492  0.004  0.752- 105 1.81 115 1.84 140 1.93 134 1.99 232 2.02 180 2.04
  16  0.491  0.497  0.255- 106 1.83  69 1.84 229 1.96 135 1.99 222 1.99 181 2.05
  17  0.500  0.503  0.762-  70 1.79 116 1.86 182 1.94 196 1.99 230 2.02 136 2.11
  18  0.996  0.258  0.002- 117 1.82 110 1.88 141 1.96 146 1.97 183 2.01 212 2.02
  19  0.999  0.248  0.492-  74 1.77 213 1.91 184 1.94 202 1.94 223 1.95 142 2.01
  20  0.997  0.758  0.006- 118 1.81  71 1.85 203 1.95 185 1.98 148 2.05 214 2.06
  21  0.995  0.757  0.506-  72 1.84 119 1.84 204 1.93 186 1.98 147 2.02 215 2.04
  22  0.495  0.258  0.002- 120 1.80 109 1.85 150 1.96 143 1.97 187 2.03 216 2.06
  23  0.510  0.245  0.499-  93 1.81 112 1.87 144 1.93 149 1.94 224 2.00 199 2.02
  24  0.507  0.756  0.998-  94 1.83 121 1.84 152 1.92 145 1.98 217 2.02 200 2.03
  25  0.504  0.756  0.503-  95 1.91  73 1.96 225 2.03 201 2.05 151 2.05 218 2.07
  26  1.000  0.259  0.256- 122 1.79  74 1.88 209 1.95 188 1.96 141 1.99 219 2.03
  27  0.006  0.241  0.748- 113 1.80  96 1.83 142 1.96 146 1.97 226 2.05 210 2.06
  28  0.006  0.749  0.242-  71 1.82  97 1.84 220 1.95 227 1.98 211 2.05 147 2.05
  29  0.991  0.752  0.743- 111 1.83  72 1.84 228 1.94 221 1.98 148 2.02 189 2.04
  30  0.508  0.242  0.252- 114 1.82  98 1.82 143 1.93 149 1.96 229 2.02 205 2.03
  31  0.507  0.242  0.751- 115 1.84  99 1.84 150 1.93 144 1.97 206 2.02 230 2.03
  32  0.506  0.752  0.248- 100 1.79 151 1.90 145 1.93 231 1.94 222 1.95 207 2.02
  33  0.498  0.743  0.740-  73 1.77 116 1.88 190 1.95 208 1.99 232 2.05 152 2.05   1 2.83
  34  0.257  0.998  0.006-  75 1.84 101 1.86 246 1.93 233 1.97 171 2.02 157 2.04
  35  0.252  0.994  0.506- 128 1.83  76 1.84 172 1.95 191 2.00 156 2.02 234 2.04
  36  0.244  0.508  0.999- 123 1.82  89 1.84 159 1.94 153 1.98 192 2.02 245 2.04
  37  0.256  0.495  0.508-  77 1.86 127 1.88 102 1.89 158 2.05 173 2.06 235 2.06
  38  0.757  0.000  0.994- 103 1.79  81 1.87 236 1.96 249 1.96 154 2.05 174 2.05
  39  0.750  0.008  0.494-  80 1.83 124 1.84 193 1.94 155 1.99 175 2.00 250 2.03
  40  0.741  0.500  0.005-  90 1.80  78 1.87 237 1.95 247 1.96 161 2.03 194 2.05
  41  0.757  0.499  0.506-  79 1.84 104 1.85 248 1.97 238 1.98 160 2.02 176 2.06
  42  0.245  0.002  0.243-  75 1.83  91 1.85 239 1.94 252 1.96 156 2.04 195 2.05
  43  0.258  0.997  0.744-  76 1.84 105 1.84 253 1.94 240 1.97 157 2.02 177 2.03
  44  0.254  0.492  0.253- 129 1.83 106 1.85 158 1.94 153 1.97 178 2.03 241 2.04
  45  0.247  0.506  0.742-  77 1.80 125 1.84 179 1.95 196 1.98 251 2.03 159 2.06
  46  0.744  0.001  0.255-  92 1.85  80 1.86 256 1.94 242 1.96 154 2.00 197 2.00
  47  0.749  0.007  0.756-  81 1.82 126 1.84 180 1.95 198 1.97 257 2.04 155 2.06
  48  0.755  0.499  0.242-  78 1.81 107 1.86 243 1.95 254 1.96 181 2.02 160 2.06
  49  0.757  0.497  0.742- 108 1.83  79 1.83 255 1.93 244 1.97 161 2.04 182 2.05
  50  0.257  0.252  0.007- 109 1.83  82 1.86 245 1.94 233 1.97 168 2.02 183 2.05
  51  0.255  0.258  0.506- 127 1.82  83 1.85 199 1.96 184 2.02 167 2.03 234 2.06
  52  0.251  0.741  0.994- 123 1.82  86 1.84 200 1.94 185 1.96 162 2.03 246 2.04
  53  0.251  0.756  0.492-  85 1.83 128 1.86 201 1.95 186 1.97 235 2.02 163 2.05
  54  0.757  0.251  0.008- 110 1.81  84 1.86 236 1.94 247 1.94 170 2.03 187 2.04
  55  0.742  0.243  0.498- 124 1.82  93 1.84 169 1.93 164 1.96 248 2.03 202 2.05
  56  0.740  0.749  0.994-  94 1.82  88 1.84 237 1.95 249 1.95 203 2.03 165 2.03
  57  0.740  0.754  0.495-  95 1.77  87 1.89 250 1.97 238 1.99 166 2.01 204 2.07
  58  0.251  0.258  0.244-  82 1.82 129 1.83 205 1.96 188 1.99 239 2.03 167 2.04
  59  0.244  0.251  0.744-  83 1.84  96 1.84 251 1.94 240 1.98 168 2.03 206 2.05
  60  0.243  0.748  0.255-  97 1.83  85 1.84 241 1.94 252 1.98 162 2.03 207 2.05
  61  0.248  0.741  0.757- 125 1.83  86 1.83 189 1.94 208 1.97 163 2.05 253 2.05
  62  0.742  0.251  0.243-  84 1.80  98 1.83 254 1.94 242 1.95 209 2.04 169 2.07
  63  0.745  0.241  0.751- 126 1.82  99 1.84 170 1.94 164 2.00 210 2.02 255 2.05
  64  0.745  0.750  0.256-  87 1.80 100 1.90 243 1.94 256 1.95 211 1.99 165 2.04
  65  0.756  0.752  0.757- 111 1.82  88 1.84 257 1.93 244 1.97 166 2.04 190 2.05
  66  0.013  0.503  0.625-   5 1.82  13 1.83
  67  0.999  0.005  0.376-   3 1.83  10 1.86
  68  0.002  0.002  0.873-  11 1.79   2 1.88
  69  0.493  0.492  0.375-   9 1.82  16 1.84
  70  0.490  0.494  0.877-  17 1.79   8 1.87
  71  0.993  0.746  0.125-  28 1.82  20 1.85
  72  0.995  0.746  0.624-  21 1.84  29 1.84
  73  0.480  0.740  0.627-  33 1.77  25 1.96   1 2.04
  74  0.993  0.248  0.377-  19 1.77  26 1.88
  75  0.257  0.999  0.125-  42 1.83  34 1.84
  76  0.257  1.000  0.625-  43 1.84  35 1.84
  77  0.236  0.492  0.627-  45 1.80  37 1.86
  78  0.746  0.490  0.126-  48 1.81  40 1.87
  79  0.741  0.492  0.624-  49 1.83  41 1.84
  80  0.748  0.003  0.376-  39 1.83  46 1.86
  81  0.744  0.002  0.873-  47 1.82  38 1.87
  82  0.244  0.254  0.126-  58 1.82  50 1.86
  83  0.250  0.253  0.625-  59 1.84  51 1.85
  84  0.741  0.261  0.127-  62 1.80  54 1.86
  85  0.247  0.744  0.374-  53 1.83  60 1.84
  86  0.242  0.746  0.875-  61 1.83  52 1.84
  87  0.746  0.750  0.373-  64 1.80  57 1.89
  88  0.740  0.749  0.875-  65 1.84  56 1.84
  89  0.125  0.506  0.991-   4 1.84  36 1.84
  90  0.626  0.509  0.995-  40 1.80   8 1.89
  91  0.126  0.007  0.249-  10 1.83  42 1.85
  92  0.625  0.006  0.248-  14 1.83  46 1.85
  93  0.625  0.265  0.492-  23 1.81  55 1.84
  94  0.624  0.739  0.009-  56 1.82  24 1.83
  95  0.627  0.771  0.503-  57 1.77  25 1.91
  96  0.125  0.242  0.752-  27 1.83  59 1.84
  97  0.125  0.748  0.245-  60 1.83  28 1.84
  98  0.626  0.241  0.264-  30 1.82  62 1.83
  99  0.626  0.244  0.751-  31 1.84  63 1.84
 100  0.622  0.749  0.242-  32 1.79  64 1.90
 101  0.376  0.997  0.990-   6 1.83  34 1.86
 102  0.377  0.517  0.515-   9 1.85  37 1.89
 103  0.873  0.999  0.998-  38 1.79   2 1.89
 104  0.876  0.511  0.505-  41 1.85   5 1.85
 105  0.376  0.987  0.758-  15 1.81  43 1.84
 106  0.374  0.493  0.244-  16 1.83  44 1.85
 107  0.875  0.494  0.249-  12 1.82  48 1.86
 108  0.875  0.495  0.742-  13 1.82  49 1.83
 109  0.376  0.250  0.006-  50 1.83  22 1.85
 110  0.874  0.251  0.008-  54 1.81  18 1.88
 111  0.874  0.757  0.756-  65 1.82  29 1.83
 112  0.518  0.124  0.492-   7 1.80  23 1.87
 113  0.988  0.126  0.745-  27 1.80  11 1.84
 114  0.491  0.125  0.263-  30 1.82  14 1.82
 115  0.493  0.123  0.753-  15 1.84  31 1.84
 116  0.484  0.622  0.748-  17 1.86  33 1.88   1 2.07
 117  0.003  0.375  0.005-  18 1.82   4 1.86
 118  0.004  0.875  0.001-  20 1.81   2 1.86
 119  0.984  0.875  0.499-   3 1.81  21 1.84
 120  0.506  0.374  0.010-  22 1.80   8 1.88
 121  0.506  0.875  0.004-  24 1.84   6 1.84
 122  0.010  0.374  0.248-  26 1.79  12 1.86
 123  0.258  0.625  0.008-  52 1.82  36 1.82
 124  0.734  0.126  0.506-  55 1.82  39 1.84
 125  0.263  0.624  0.744-  61 1.83  45 1.84
 126  0.760  0.124  0.742-  63 1.82  47 1.84
 127  0.264  0.374  0.493-  51 1.82  37 1.88
 128  0.263  0.876  0.496-  35 1.83  53 1.86
 129  0.240  0.375  0.261-  44 1.83  58 1.83
 130  0.998  0.003  0.127-  10 2.00   2 2.04
 131  0.000  0.999  0.623-   3 2.01  11 2.06
 132  0.005  0.509  0.126-  12 1.97   4 1.99
 133  0.492  0.009  0.126-  14 1.93   6 1.97
 134  0.495  0.003  0.623-   7 1.92  15 1.99
 135  0.506  0.508  0.128-  16 1.99   8 2.02
 136  0.506  0.505  0.626-   1 2.02   9 2.07  17 2.11
 137  0.998  0.497  0.377-  12 1.93   5 2.03
 138  0.991  0.497  0.873-   4 1.94  13 2.02
 139  0.506  0.987  0.376-   7 1.93  14 1.98
 140  0.517  0.996  0.874-  15 1.93   6 1.96
 141  0.009  0.245  0.128-  18 1.96  26 1.99
 142  0.002  0.256  0.622-  27 1.96  19 2.01
 143  0.511  0.238  0.127-  30 1.93  22 1.97
 144  0.501  0.245  0.623-  23 1.93  31 1.97
 145  0.487  0.744  0.124-  32 1.93  24 1.98
 146  0.994  0.251  0.875-  18 1.97  27 1.97
 147  1.000  0.751  0.375-  21 2.02  28 2.05
 148  0.007  0.751  0.874-  29 2.02  20 2.05
 149  0.488  0.264  0.376-  23 1.94  30 1.96
 150  0.497  0.255  0.875-  31 1.93  22 1.96
 151  0.499  0.759  0.371-  32 1.90  25 2.05
 152  0.507  0.751  0.873-  24 1.92  33 2.05
 153  0.239  0.490  0.126-  44 1.97  36 1.98
 154  0.751  1.000  0.126-  46 2.00  38 2.05
 155  0.751  0.993  0.623-  39 1.99  47 2.06
 156  0.250  0.005  0.375-  35 2.02  42 2.04
 157  0.242  0.999  0.874-  43 2.02  34 2.04
 158  0.255  0.513  0.376-  44 1.94  37 2.05
 159  0.263  0.503  0.874-  36 1.94  45 2.06
 160  0.750  0.507  0.375-  41 2.02  48 2.06
 161  0.756  0.506  0.874-  40 2.03  49 2.04
 162  0.256  0.758  0.124-  52 2.03  60 2.03
 163  0.256  0.754  0.625-  61 2.05  53 2.05
 164  0.749  0.262  0.623-  55 1.96  63 2.00
 165  0.758  0.752  0.125-  56 2.03  64 2.04
 166  0.756  0.751  0.624-  57 2.01  65 2.04
 167  0.256  0.241  0.375-  51 2.03  58 2.04
 168  0.255  0.247  0.876-  50 2.02  59 2.03
 169  0.764  0.243  0.375-  55 1.93  62 2.07
 170  0.755  0.242  0.876-  63 1.94  54 2.03
 171  0.126  0.004  0.004-  34 2.02   2 2.03
 172  0.125  0.989  0.502-  35 1.95   3 1.95
 173  0.124  0.491  0.489-   5 2.02  37 2.06
 174  0.625  0.005  0.009-   6 2.03  38 2.05
 175  0.624  0.979  0.505-   7 1.95  39 2.00
 176  0.624  0.485  0.495-   9 2.03  41 2.06
 177  0.127  0.010  0.744-  11 1.95  43 2.03
 178  0.124  0.511  0.256-  44 2.03  12 2.04
 179  0.123  0.506  0.767-  45 1.95  13 2.05
 180  0.624  0.005  0.739-  47 1.95  15 2.04
 181  0.624  0.504  0.255-  48 2.02  16 2.05
 182  0.625  0.504  0.760-  17 1.94  49 2.05
 183  0.125  0.247  0.994-  18 2.01  50 2.05
 184  0.124  0.260  0.496-  19 1.94  51 2.02
 185  0.124  0.742  0.007-  52 1.96  20 1.98
 186  0.123  0.763  0.503-  53 1.97  21 1.98
 187  0.626  0.246  0.993-  22 2.03  54 2.04
 188  0.125  0.235  0.259-  26 1.96  58 1.99
 189  0.123  0.741  0.743-  61 1.94  29 2.04
 190  0.624  0.741  0.739-  33 1.95  65 2.05
 191  0.377  0.021  0.493-   7 1.92  35 2.00
 192  0.373  0.493  0.013-  36 2.02   8 2.03
 193  0.875  0.020  0.504-  39 1.94   3 1.97
 194  0.875  0.495  0.004-   4 2.03  40 2.05
 195  0.377  0.993  0.258-  14 2.00  42 2.05
 196  0.374  0.486  0.737-  45 1.98  17 1.99
 197  0.874  0.996  0.249-  46 2.00  10 2.06
 198  0.874  0.984  0.746-  47 1.97  11 2.00
 199  0.379  0.233  0.502-  51 1.96  23 2.02
 200  0.376  0.758  0.992-  52 1.94  24 2.03
 201  0.374  0.731  0.494-  53 1.95  25 2.05
 202  0.875  0.238  0.508-  19 1.94  55 2.05
 203  0.872  0.757  0.992-  20 1.95  56 2.03
 204  0.873  0.733  0.496-  21 1.93  57 2.07
 205  0.378  0.261  0.244-  58 1.96  30 2.03
 206  0.377  0.258  0.749-  31 2.02  59 2.05
 207  0.376  0.752  0.251-  32 2.02  60 2.05
 208  0.373  0.766  0.762-  61 1.97  33 1.99
 209  0.874  0.259  0.243-  26 1.95  62 2.04
 210  0.875  0.262  0.746-  63 2.02  27 2.06
 211  0.874  0.752  0.253-  64 1.99  28 2.05
 212  0.001  0.127  0.001-  18 2.02   2 2.04
 213  0.012  0.126  0.507-  19 1.91   3 2.09
 214  0.991  0.625  0.994-   4 2.01  20 2.06
 215  0.013  0.627  0.493-   5 1.93  21 2.04
 216  0.502  0.124  0.995-   6 2.02  22 2.06
 217  0.488  0.626  0.999-  24 2.02   8 2.05
 218  0.514  0.622  0.503-   9 1.97  25 2.07   1 2.19
 219  0.989  0.128  0.247-  10 1.95  26 2.03
 220  0.995  0.624  0.257-  28 1.95  12 2.00
 221  0.996  0.625  0.756-  13 1.96  29 1.98
 222  0.496  0.626  0.256-  32 1.95  16 1.99
 223  0.991  0.374  0.500-  19 1.95   5 2.01
 224  0.484  0.371  0.509-   9 1.96  23 2.00
 225  0.478  0.884  0.505-   7 1.95  25 2.03
 226  0.007  0.374  0.751-  13 1.93  27 2.05
 227  0.999  0.876  0.250-  10 1.97  28 1.98
 228  0.011  0.876  0.746-  29 1.94  11 2.04
 229  0.508  0.372  0.241-  16 1.96  30 2.02
 230  0.505  0.373  0.744-  17 2.02  31 2.03
 231  0.500  0.877  0.240-  32 1.94  14 2.04
 232  0.511  0.875  0.747-  15 2.02  33 2.05
 233  0.249  0.125  0.998-  34 1.97  50 1.97
 234  0.239  0.125  0.500-  35 2.04  51 2.06
 235  0.236  0.627  0.508-  53 2.02  37 2.06
 236  0.747  0.126  0.007-  54 1.94  38 1.96
 237  0.763  0.625  0.005-  56 1.95  40 1.95
 238  0.735  0.625  0.503-  41 1.98  57 1.99
 239  0.263  0.127  0.250-  42 1.94  58 2.03
 240  0.261  0.124  0.753-  43 1.97  59 1.98
 241  0.254  0.623  0.239-  60 1.94  44 2.04
 242  0.763  0.127  0.245-  62 1.95  46 1.96
 243  0.752  0.625  0.244-  64 1.94  48 1.95
 244  0.752  0.625  0.745-  65 1.97  49 1.97
 245  0.246  0.376  0.994-  50 1.94  36 2.04
 246  0.243  0.873  0.998-  34 1.93  52 2.04
 247  0.745  0.375  0.986-  54 1.94  40 1.96
 248  0.765  0.373  0.490-  41 1.97  55 2.03
 249  0.742  0.875  0.003-  56 1.95  38 1.96
 250  0.770  0.878  0.499-  57 1.97  39 2.03
 251  0.243  0.376  0.761-  59 1.94  45 2.03
 252  0.250  0.876  0.255-  42 1.96  60 1.98
 253  0.236  0.873  0.750-  43 1.94  61 2.05
 254  0.743  0.374  0.266-  62 1.94  48 1.96
 255  0.744  0.373  0.760-  49 1.93  63 2.05
 256  0.749  0.876  0.247-  46 1.94  64 1.95
 257  0.738  0.875  0.747-  65 1.93  47 2.04
 

IMPORTANT INFORMATION: All symmetrisations will be switched off!
NOSYMM: (Re-)initialisation of all symmetry stuff for point group C_1.

 
 
 KPOINTS: Title                                   

Automatic generation of k-mesh.
Space group operators:
 irot       det(A)        alpha          n_x          n_y          n_z        tau_x        tau_y        tau_z
    1     1.000000     0.000001     1.000000     0.000000     0.000000     0.000000     0.000000     0.000000
 
 Subroutine IBZKPT returns following result:
 ===========================================
 
 Found      4 irreducible k-points:
 
 Following reciprocal coordinates:
            Coordinates               Weight
  0.250000  0.250000  0.250000      2.000000
 -0.250000  0.250000  0.250000      2.000000
  0.250000 -0.250000  0.250000      2.000000
 -0.250000 -0.250000  0.250000      2.000000
 
 Following cartesian coordinates:
            Coordinates               Weight
  0.016206  0.016206  0.016206      2.000000
 -0.016206  0.016206  0.016206      2.000000
  0.016206 -0.016206  0.016206      2.000000
 -0.016206 -0.016206  0.016206      2.000000
 


--------------------------------------------------------------------------------------------------------




 Dimension of arrays:
   k-points           NKPTS =      4   k-points in BZ     NKDIM =      4   number of bands    NBANDS=   1164
   number of dos      NEDOS =   3001   number of ions     NIONS =    257
   non local maximal  LDIM  =      6   non local SUM 2l+1 LMDIM =     18
   total plane-waves  NPLWV = ******
   max r-space proj   IRMAX =   7595   max aug-charges    IRDMAX= 146383
   dimension x,y,z NGX =   120 NGY =  120 NGZ =  120
   dimension x,y,z NGXF=   240 NGYF=  240 NGZF=  240
   support grid    NGXF=   480 NGYF=  480 NGZF=  480
   ions per type =               1  64  64 128
   NGX,Y,Z   is equivalent  to a cutoff of  12.93, 12.93, 12.93 a.u.
   NGXF,Y,Z  is equivalent  to a cutoff of  25.86, 25.86, 25.86 a.u.

 SYSTEM =  LTO                                     
 POSCAR =  config 27                               

 Startparameter for this run:
   NWRITE =      2    write-flag & timer
   PREC   = accura    normal or accurate (medium, high low for compatibility)
   ISTART =      0    job   : 0-new  1-cont  2-samecut
   ICHARG =      2    charge: 1-file 2-atom 10-const
   ISPIN  =      2    spin polarized calculation?
   LNONCOLLINEAR =      F non collinear calculations
   LSORBIT =      F    spin-orbit coupling
   INIWAV =      1    electr: 0-lowe 1-rand  2-diag
   LASPH  =      T    aspherical Exc in radial PAW
   METAGGA=      F    non-selfconsistent MetaGGA calc.

 Electronic Relaxation 1
   ENCUT  =  500.0 eV  36.75 Ry    6.06 a.u.  28.13 28.13 28.13*2*pi/ulx,y,z
   ENINI  =  500.0     initial cutoff
   ENAUG  =  628.9 eV  augmentation charge cutoff
   NELM   =     60;   NELMIN=  2; NELMDL=  0     # of ELM steps 
   EDIFF  = 0.1E-05   stopping-criterion for ELM
   LREAL  =      T    real-space projection
   NLSPLINE    = F    spline interpolate recip. space projectors
   LCOMPAT=      F    compatible to vasp.4.4
   GGA_COMPAT  = T    GGA compatible to vasp.4.4-vasp.4.6
   LMAXPAW     = -100 max onsite density
   LMAXMIX     =    4 max onsite mixed and CHGCAR
   VOSKOWN=      0    Vosko Wilk Nusair interpolation
   ROPT   =   -0.00010  -0.00010  -0.00010  -0.00010
 Ionic relaxation
   EDIFFG = -.5E-01   stopping-criterion for IOM
   NSW    =    100    number of steps for IOM
   NBLOCK =      1;   KBLOCK =    100    inner block; outer block 
   IBRION =      1    ionic relax: 0-MD 1-quasi-New 2-CG
   NFREE  =      0    steps in history (QN), initial steepest desc. (CG)
   ISIF   =      2    stress and relaxation
   IWAVPR =     11    prediction:  0-non 1-charg 2-wave 3-comb
   ISYM   =      0    0-nonsym 1-usesym 2-fastsym
   LCORR  =      T    Harris-Foulkes like correction to forces

   POTIM  = 0.5000    time-step for ionic-motion
   TEIN   =    0.0    initial temperature
   TEBEG  =    0.0;   TEEND  =   0.0 temperature during run
   SMASS  =  -3.00    Nose mass-parameter (am)
   estimated Nose-frequenzy (Omega)   =  0.10E-29 period in steps =****** mass=  -0.544E-26a.u.
   SCALEE = 1.0000    scale energy and forces
   NPACO  =    256;   APACO  = 16.0  distance and # of slots for P.C.
   PSTRESS=    0.0 pullay stress

  Mass of Ions in am
   POMASS =   7.01 47.88 16.00 19.00
  Ionic Valenz
   ZVAL   =   3.00 10.00  6.00  7.00
  Atomic Wigner-Seitz radii
   RWIGS  =  -1.00 -1.00 -1.00 -1.00
  virtual crystal weights 
   VCA    =   1.00  1.00  1.00  1.00
   NELECT =    1923.0000    total number of electrons
   NUPDOWN=       1.0000    fix difference up-down

 DOS related values:
   EMIN   =  10.00;   EMAX   =-10.00  energy-range for DOS
   EFERMI =   0.00
   ISMEAR =     0;   SIGMA  =   0.01  broadening in eV -4-tet -1-fermi 0-gaus

 Electronic relaxation 2 (details)
   IALGO  =     38    algorithm
   LDIAG  =      T    sub-space diagonalisation (order eigenvalues)
   LSUBROT=      F    optimize rotation matrix (better conditioning)
   TURBO    =      0    0=normal 1=particle mesh
   IRESTART =      0    0=no restart 2=restart with 2 vectors
   NREBOOT  =      0    no. of reboots
   NMIN     =      0    reboot dimension
   EREF     =   0.00    reference energy to select bands
   IMIX   =      4    mixing-type and parameters
     AMIX     =   0.40;   BMIX     =  1.00
     AMIX_MAG =   1.60;   BMIX_MAG =  1.00
     AMIN     =   0.10
     WC   =   100.;   INIMIX=   1;  MIXPRE=   1;  MAXMIX= -45

 Intra band minimization:
   WEIMIN = 0.0010     energy-eigenvalue tresh-hold
   EBREAK =  0.21E-09  absolut break condition
   DEPER  =   0.30     relativ break condition  

   TIME   =   0.40     timestep for ELM

  volume/ion in A,a.u.               =      14.28        96.39
  Fermi-wavevector in a.u.,A,eV,Ry     =   1.319690  2.493853 23.695660  1.741582
  Thomas-Fermi vector in A             =   2.449570
 
 Write flags
   LWAVE        =      T    write WAVECAR
   LDOWNSAMPLE  =      F    k-point downsampling of WAVECAR
   LCHARG       =      T    write CHGCAR
   LVTOT        =      F    write LOCPOT, total local potential
   LVHAR        =      F    write LOCPOT, Hartree potential only
   LELF         =      F    write electronic localiz. function (ELF)
   LORBIT       =     11    0 simple, 1 ext, 2 COOP (PROOUT), +10 PAW based schemes


 Dipole corrections
   LMONO  =      F    monopole corrections only (constant potential shift)
   LDIPOL =      F    correct potential (dipole corrections)
   IDIPOL =      0    1-x, 2-y, 3-z, 4-all directions 
   EPSILON=  1.0000000 bulk dielectric constant

 LDA+U is selected, type is set to LDAUTYPE =  2
   angular momentum for each species LDAUL =    -1    2   -1   -1
   U (eV)           for each species LDAUU =   0.0  4.2  0.0  0.0
   J (eV)           for each species LDAUJ =   0.0  0.0  0.0  0.0
 Exchange correlation treatment:
   GGA     =    PS    GGA type
   LEXCH   =    14    internal setting for exchange type
   VOSKOWN=      0    Vosko Wilk Nusair interpolation
   LHFCALC =     F    Hartree Fock is set to
   LHFONE  =     F    Hartree Fock one center treatment
   AEXX    =    0.0000 exact exchange contribution

 Linear response parameters
   LEPSILON=     F    determine dielectric tensor
   LRPA    =     F    only Hartree local field effects (RPA)
   LNABLA  =     F    use nabla operator in PAW spheres
   LVEL    =     F    velocity operator in full k-point grid
   LINTERFAST=   F  fast interpolation
   KINTER  =     0    interpolate to denser k-point grid
   CSHIFT  =0.1000    complex shift for real part using Kramers Kronig
   OMEGAMAX=  -1.0    maximum frequency
   DEG_THRESHOLD= 0.2000000E-02 threshold for treating states as degnerate
   RTIME   =   -0.100 relaxation time in fs
  (WPLASMAI=    0.000 imaginary part of plasma frequency in eV, 0.658/RTIME)
   DFIELD  = 0.0000000 0.0000000 0.0000000 field for delta impulse in time
 
 Orbital magnetization related:
   ORBITALMAG=     F  switch on orbital magnetization
   LCHIMAG   =     F  perturbation theory with respect to B field
   DQ        =  0.001000  dq finite difference perturbation B field
   LLRAUG    =     F  two centre corrections for induced B field



--------------------------------------------------------------------------------------------------------


 quasi-Newton-method for relaxation of ions
 charge density and potential will be updated during run
 spin polarized calculation
 Variant of blocked Davidson
 Davidson routine will perform the subspace rotation
 perform sub-space diagonalisation
    after iterative eigenvector-optimisation
 modified Broyden-mixing scheme, WC =      100.0
 initial mixing is a Kerker type mixing with AMIX =  0.4000 and BMIX =      1.0000
 Hartree-type preconditioning will be used
 using additional bands          202
 real space projection scheme for non local part
 use partial core corrections
 calculate Harris-corrections to forces 
   (improved forces if not selfconsistent)
 use gradient corrections 
 use of overlap-Matrix (Vanderbilt PP)
 Gauss-broadening in eV      SIGMA  =   0.01


--------------------------------------------------------------------------------------------------------


  energy-cutoff  :      500.00
  volume of cell :     3671.03
      direct lattice vectors                 reciprocal lattice vectors
    15.426331000  0.000000000  0.000000000     0.064824228  0.000000000  0.000000000
     0.000000000 15.426331000  0.000000000     0.000000000  0.064824228  0.000000000
     0.000000000  0.000000000 15.426331000     0.000000000  0.000000000  0.064824228

  length of vectors
    15.426331000 15.426331000 15.426331000     0.064824228  0.064824228  0.064824228


 
 k-points in units of 2pi/SCALE and weight: Title                                   
   0.01620606  0.01620606  0.01620606       0.250
  -0.01620606  0.01620606  0.01620606       0.250
   0.01620606 -0.01620606  0.01620606       0.250
  -0.01620606 -0.01620606  0.01620606       0.250
 
 k-points in reciprocal lattice and weights: Title                                   
   0.25000000  0.25000000  0.25000000       0.250
  -0.25000000  0.25000000  0.25000000       0.250
   0.25000000 -0.25000000  0.25000000       0.250
  -0.25000000 -0.25000000  0.25000000       0.250
 
 position of ions in fractional coordinates (direct lattice) 
   0.43660917  0.61586948  0.62255247
   0.99549184  0.99507209  0.99443720
   0.99860675  0.99173161  0.49345252
   0.00601094  0.49556649  0.99761349
   0.99540967  0.50397607  0.50824578
   0.49436022  0.99336963  0.99908143
   0.50144470  0.00864485  0.49891909
   0.50411930  0.49481300  0.99753779
   0.49294222  0.49650255  0.49265103
   0.00706929  0.00357497  0.25585600
   0.00110967  0.00758505  0.75676858
   0.99302142  0.49378732  0.25166388
   0.99288813  0.49808825  0.74191430
   0.50588443  0.00881885  0.24972830
   0.49201278  0.00433560  0.75176178
   0.49131197  0.49688374  0.25541632
   0.49953606  0.50267732  0.76200460
   0.99573481  0.25759576  0.00195558
   0.99915540  0.24843205  0.49170588
   0.99713509  0.75789779  0.00565258
   0.99494424  0.75727514  0.50567190
   0.49529858  0.25766812  0.00190713
   0.50957521  0.24452195  0.49876124
   0.50711295  0.75552032  0.99758569
   0.50442511  0.75564687  0.50332229
   0.99984139  0.25881109  0.25569205
   0.00609126  0.24119422  0.74803127
   0.00581765  0.74861907  0.24209085
   0.99139838  0.75205253  0.74333811
   0.50801448  0.24158658  0.25232201
   0.50663284  0.24177977  0.75115676
   0.50648548  0.75173139  0.24781618
   0.49815681  0.74261540  0.74044937
   0.25662104  0.99770752  0.00552648
   0.25153951  0.99363727  0.50582152
   0.24366377  0.50778032  0.99869262
   0.25625147  0.49486812  0.50819060
   0.75697745  0.00032636  0.99370535
   0.74978577  0.00793335  0.49429578
   0.74148665  0.50043533  0.00472791
   0.75657761  0.49910923  0.50602496
   0.24502810  0.00242156  0.24324140
   0.25776147  0.99659211  0.74401911
   0.25413701  0.49198417  0.25267312
   0.24712837  0.50600348  0.74191781
   0.74447836  0.00137992  0.25543536
   0.74883168  0.00673735  0.75562996
   0.75474295  0.49862467  0.24242602
   0.75670452  0.49670282  0.74221884
   0.25732953  0.25165267  0.00655210
   0.25457131  0.25760088  0.50592297
   0.25083534  0.74148198  0.99399342
   0.25061064  0.75587673  0.49205861
   0.75727740  0.25137670  0.00786365
   0.74215269  0.24332006  0.49812523
   0.74045306  0.74877661  0.99416473
   0.74013809  0.75401911  0.49481119
   0.25109864  0.25814577  0.24433050
   0.24374497  0.25088813  0.74438593
   0.24300934  0.74774799  0.25495305
   0.24793457  0.74099698  0.75688909
   0.74196780  0.25114368  0.24276543
   0.74524758  0.24091723  0.75111937
   0.74490780  0.74998822  0.25646468
   0.75560423  0.75159342  0.75672895
   0.01287974  0.50263360  0.62517257
   0.99865302  0.00547739  0.37592876
   0.00223263  0.00176897  0.87276351
   0.49294320  0.49237401  0.37482347
   0.48982018  0.49445522  0.87714603
   0.99279439  0.74587656  0.12501743
   0.99453336  0.74630549  0.62411695
   0.48014740  0.74031489  0.62712037
   0.99297163  0.24811550  0.37681498
   0.25668606  0.99884379  0.12504577
   0.25708248  0.99968278  0.62494178
   0.23566340  0.49219121  0.62681613
   0.74582077  0.48970114  0.12564569
   0.74124064  0.49244281  0.62439233
   0.74808552  0.00277056  0.37570625
   0.74441497  0.00206941  0.87319031
   0.24397449  0.25371367  0.12632958
   0.25026005  0.25318565  0.62546823
   0.74063396  0.26106492  0.12671793
   0.24735485  0.74405142  0.37422538
   0.24196401  0.74552628  0.87531761
   0.74595830  0.74953154  0.37283648
   0.74030673  0.74890560  0.87474711
   0.12452005  0.50603392  0.99137104
   0.62553503  0.50934955  0.99515514
   0.12559742  0.00660630  0.24931607
   0.62475815  0.00588642  0.24753498
   0.62481286  0.26548920  0.49237277
   0.62396334  0.73899642  0.00930574
   0.62699352  0.77089154  0.50322946
   0.12483832  0.24202289  0.75187375
   0.12480325  0.74813761  0.24532159
   0.62552688  0.24148914  0.26383155
   0.62585018  0.24362435  0.75090586
   0.62223563  0.74948252  0.24236371
   0.37600398  0.99721414  0.99045764
   0.37680494  0.51692177  0.51505903
   0.87294916  0.99918672  0.99806729
   0.87581063  0.51053799  0.50501057
   0.37613051  0.98730318  0.75800216
   0.37352907  0.49337434  0.24363847
   0.87502530  0.49392374  0.24855718
   0.87512509  0.49486246  0.74188483
   0.37595747  0.25043143  0.00641417
   0.87439327  0.25132810  0.00756552
   0.87377065  0.75705707  0.75579495
   0.51828987  0.12357251  0.49171222
   0.98775008  0.12574020  0.74510558
   0.49114023  0.12529050  0.26328046
   0.49279049  0.12341379  0.75256982
   0.48374498  0.62167273  0.74819518
   0.00311617  0.37530339  0.00459224
   0.00386630  0.87487816  0.00140700
   0.98375386  0.87549388  0.49863586
   0.50556635  0.37372320  0.01002052
   0.50599925  0.87460425  0.00441825
   0.00996002  0.37437491  0.24793496
   0.25762036  0.62465567  0.00769666
   0.73372445  0.12584805  0.50574435
   0.26268517  0.62420737  0.74363573
   0.76026036  0.12443991  0.74163073
   0.26356769  0.37422303  0.49261795
   0.26309521  0.87598867  0.49598829
   0.23977243  0.37482677  0.26077137
   0.99780392  0.00334728  0.12658665
   0.00028057  0.99926224  0.62336563
   0.00514365  0.50854387  0.12564256
   0.49212060  0.00935194  0.12557375
   0.49539939  0.00347388  0.62304147
   0.50645349  0.50833920  0.12794698
   0.50649606  0.50519465  0.62573258
   0.99823428  0.49694171  0.37681692
   0.99130338  0.49712139  0.87302173
   0.50565392  0.98729185  0.37599957
   0.51672601  0.99565738  0.87425460
   0.00924076  0.24540129  0.12780609
   0.00210601  0.25638918  0.62180656
   0.51088101  0.23761331  0.12736509
   0.50092911  0.24511685  0.62334884
   0.48731979  0.74411901  0.12417729
   0.99389316  0.25138782  0.87468079
   0.99992504  0.75061602  0.37487834
   0.00706106  0.75076085  0.87353193
   0.48845971  0.26376342  0.37614930
   0.49744579  0.25521025  0.87516925
   0.49875011  0.75909980  0.37057195
   0.50725061  0.75103323  0.87301788
   0.23897919  0.49024260  0.12574029
   0.75111366  0.99999979  0.12615550
   0.75050539  0.99322632  0.62258420
   0.25034768  0.00499962  0.37547575
   0.24173819  0.99918634  0.87396269
   0.25506875  0.51348005  0.37649650
   0.26257942  0.50261404  0.87436460
   0.74975155  0.50707271  0.37548506
   0.75604016  0.50637063  0.87406426
   0.25628804  0.75844412  0.12439778
   0.25617112  0.75415218  0.62511846
   0.74940956  0.26215855  0.62349012
   0.75770166  0.75165884  0.12458442
   0.75569758  0.75133086  0.62422381
   0.25601780  0.24137922  0.37510972
   0.25458807  0.24693133  0.87560189
   0.76364931  0.24262008  0.37459185
   0.75533282  0.24221216  0.87637845
   0.12617342  0.00433166  0.00380795
   0.12501977  0.98947628  0.50163131
   0.12441530  0.49060004  0.48904178
   0.62487460  0.00454171  0.00867461
   0.62393226  0.97914512  0.50452020
   0.62412970  0.48494615  0.49500996
   0.12698960  0.00953914  0.74429068
   0.12413450  0.51053561  0.25554438
   0.12345149  0.50630442  0.76666530
   0.62367118  0.00464157  0.73850786
   0.62423793  0.50383759  0.25513182
   0.62546831  0.50423993  0.75969631
   0.12520368  0.24706818  0.99350219
   0.12429684  0.25995960  0.49557334
   0.12428279  0.74221488  0.00710585
   0.12327885  0.76262887  0.50276413
   0.62630190  0.24582492  0.99258792
   0.12477408  0.23534449  0.25900966
   0.12313956  0.74082439  0.74319326
   0.62437090  0.74118444  0.73864090
   0.37749847  0.02061449  0.49286832
   0.37314345  0.49280312  0.01260018
   0.87476572  0.02044352  0.50400603
   0.87458475  0.49546280  0.00356283
   0.37710902  0.99330105  0.25770904
   0.37399624  0.48560263  0.73728017
   0.87382577  0.99626633  0.24925259
   0.87434262  0.98410734  0.74625077
   0.37932015  0.23269685  0.50207657
   0.37570327  0.75824084  0.99237621
   0.37429181  0.73130833  0.49439447
   0.87483316  0.23826153  0.50752532
   0.87155362  0.75668316  0.99167338
   0.87261088  0.73337762  0.49578878
   0.37815332  0.26059343  0.24439111
   0.37652046  0.25762714  0.74940701
   0.37571736  0.75227233  0.25084754
   0.37324656  0.76613913  0.76200601
   0.87410123  0.25941341  0.24349721
   0.87457570  0.26231267  0.74588175
   0.87356899  0.75237446  0.25328617
   0.00091383  0.12702352  0.00083489
   0.01242035  0.12607363  0.50700633
   0.99112589  0.62511243  0.99414235
   0.01291849  0.62695837  0.49340463
   0.50177853  0.12431121  0.99462717
   0.48755388  0.62634000  0.99871605
   0.51381571  0.62175411  0.50318102
   0.98897266  0.12819616  0.24725129
   0.99452711  0.62353741  0.25671171
   0.99622851  0.62461793  0.75557307
   0.49591917  0.62592338  0.25550134
   0.99056919  0.37429100  0.50021048
   0.48369977  0.37098778  0.50928929
   0.47843087  0.88437874  0.50488028
   0.00718952  0.37416818  0.75056958
   0.99934128  0.87636422  0.25044132
   0.01107334  0.87591762  0.74647499
   0.50778282  0.37211012  0.24053507
   0.50548926  0.37307883  0.74358220
   0.49996993  0.87699592  0.24013461
   0.51090907  0.87454953  0.74660442
   0.24919392  0.12466380  0.99826606
   0.23865306  0.12494507  0.50045145
   0.23631601  0.62674829  0.50829459
   0.74731512  0.12609022  0.00679366
   0.76307911  0.62512173  0.00540311
   0.73492652  0.62537166  0.50341076
   0.26263588  0.12685001  0.24979777
   0.26092838  0.12409006  0.75307719
   0.25431741  0.62348764  0.23879247
   0.76267256  0.12661861  0.24469863
   0.75186066  0.62486487  0.24379052
   0.75156620  0.62453289  0.74501927
   0.24633262  0.37594115  0.99350383
   0.24268586  0.87337087  0.99762564
   0.74489306  0.37483137  0.98579450
   0.76454310  0.37280912  0.49024493
   0.74157592  0.87478902  0.00325967
   0.77047773  0.87791960  0.49882646
   0.24343257  0.37577380  0.76122795
   0.25019275  0.87580034  0.25502189
   0.23644223  0.87309555  0.75041872
   0.74294570  0.37443358  0.26647477
   0.74424990  0.37324574  0.75971595
   0.74907717  0.87593246  0.24656170
   0.73828107  0.87534258  0.74696193
 
 position of ions in cartesian coordinates  (Angst):
   6.73527752  9.50060643  9.60370042
  15.35678670 15.35031150 15.34051738
  15.40483828 15.29878004  7.61216196
   0.09272679  7.64477275 15.38951598
  15.35551900  7.77450160  7.84036760
   7.62616445 15.32404875 15.41216091
   7.73545199  0.13335835  7.69649105
   7.77671120  7.63314909 15.38834814
   7.60428982  7.65921262  7.59979785
   0.10905326  0.05514862  3.94691938
   0.01711810  0.11700954 11.67416260
  15.31867710  7.61732664  3.88225036
  15.31662099  7.68367423 11.44501561
   7.80394061  0.13604247  3.85239148
   7.58995205  0.06688235 11.59692608
   7.57914112  7.66509305  3.94013672
   7.70600855  7.75446671 11.75493518
  15.36053479  3.97375748  0.03016743
  15.41330196  3.83239509  7.58521771
  15.38213598 11.69158223  0.08719864
  15.34833921 11.68197696  7.80066208
   7.64063987  3.97487373  0.02942002
   7.86087591  3.77207655  7.69405598
   7.82289215 11.65490651 15.38908702
   7.78142871 11.65685874  7.76441617
  15.42388431  3.99250551  3.94439023
   0.09396573  3.72074182 11.53937798
   0.08974500 11.54844563  3.73457362
  15.29363954 11.60141131 11.46697980
   7.83679958  3.72679456  3.89240291
   7.81548587  3.72977483 11.58759280
   7.81321260 11.59645728  3.82289447
   7.68473183 11.45583096 11.42241707
   3.95872116 15.39096641  0.08525329
   3.88033177 15.32817736  7.80297019
   3.75883801  7.83318727 15.40616291
   3.95301994  7.63399935  7.83951648
  11.67738464  0.00503456 15.32922770
  11.56644346  0.12238247  7.62517027
  11.43841853  7.71988102  0.07293427
  11.67121670  7.69942415  7.80610856
   3.77988455  0.03735586  3.75232235
   3.97631374 15.37375970 11.47748509
   3.92040165  7.58951070  3.89781911
   3.81228397  7.80577723 11.44506965
  11.48456958  0.02128711  3.94043049
  11.55172531  0.10393264 11.65659785
  11.64291459  7.69194919  3.73974406
  11.67317439  7.66230213 11.44971350
   3.96965044  3.88207739  0.10107490
   3.92710121  3.97383639  7.80453524
   3.86946899 11.43834649 15.33367143
   3.86600272 11.66040466  7.59065900
  11.68201177  3.87782013  0.12130734
  11.44869303  3.75353572  7.68424466
  11.42247401 11.55087579 15.33631419
  11.41761515 11.63174837  7.63312114
   3.87353066  3.98224212  3.76912323
   3.76009051  3.87028331 11.48314369
   3.74874256 11.53500802  3.93299014
   3.82472075 11.43086465 11.67602160
  11.44584092  3.87422552  3.74497992
  11.49643584  3.71646899 11.58701599
  11.49119424 11.56956658  3.95630908
  11.65620093 11.59432891 11.67355131
   0.19868709  7.75379228  9.64411892
  15.40555198  0.08449601  5.79920144
   0.03444124  0.02728867 13.46353884
   7.60430495  7.59552443  5.78215091
   7.55612820  7.62762981 13.53114504
  15.31517486 11.50613865  1.92856026
  15.34200076 11.51275559  9.62783465
   7.40691277 11.42034251  9.67416643
  15.31790897  3.82751187  5.81287259
   3.95972406 15.40849499  1.92899744
   3.96583941 15.42143741  9.64055880
   3.63542156  7.59270449  9.66947314
  11.50527802  7.55429191  1.93825193
  11.43462352  7.59658584  9.63208270
  11.54021486  0.04273952  5.79576893
  11.48359177  0.03192340 13.47012275
   3.76363119  3.91387112  1.94880189
   3.86059430  3.90572558  9.64867989
  11.42526465  4.02727384  1.95479267
   3.81577774 11.47798348  5.77292453
   3.73261698 11.50073516 13.50293914
  11.50739965 11.56252169  5.75149896
  11.42021667 11.55286572 13.49413853
   1.92088750  7.80624682 15.29321782
   9.64971049  7.85739475 15.35159257
   1.93750744  0.10191103  3.84603219
   9.63772603  0.09080588  3.81855651
   9.63856994  4.09552435  7.59550538
   9.62546494 11.40000339  0.14355337
   9.67220964 11.89202800  7.76298416
   1.92579728  3.73352528 11.59865329
   1.92525621 11.54101847  3.78441200
   9.64958470  3.72529137  4.06995282
   9.65457210  3.75822991 11.58372238
   9.59881279 11.56176541  3.73878276
   5.80036185 15.38335547 15.27912747
   5.81271777  7.97420627  7.94547112
  13.46640264 15.41378509 15.39651639
  13.51054468  7.87572798  7.79046013
   5.80231381 15.23046561 11.69319216
   5.76218312  7.61095589  3.75844765
  13.49842986  7.61943106  3.83432529
  13.49996937  7.63391214 11.44456091
   5.79964444  3.86323810  0.09894714
  13.48867996  3.87707042  0.11670824
  13.47907519 11.67861299 11.65914314
   7.99531105  1.90627039  7.58531552
  15.23735964  1.93970989 11.49424537
   7.57649170  1.93277267  4.06145152
   7.60194928  1.90382198 11.60939113
   7.46241021  9.59012930 11.54190650
   0.04807103  5.78955424  0.07084136
   0.05964284 13.49616013  0.02170479
  15.17571270 13.50565841  7.69212189
   7.79903381  5.76517785  0.15457985
   7.80571198 13.49193466  0.06815738
   0.15364654  5.77523124  3.82472670
   3.97413702  9.63614515  0.11873124
  11.31867620  1.94137369  7.80177969
   4.05226837  9.62922943 11.47157097
  11.72802803  1.91965117 11.44064113
   4.06588244  5.77288835  7.59928753
   4.05859384 13.51329120  7.65127960
   3.69880893  5.78220183  4.02274543
  15.39245360  0.05163624  1.95276763
   0.00432816 15.41495006  9.61624447
   0.07934767  7.84496610  1.93820379
   7.59161520  0.14426614  1.93714223
   7.64219497  0.05358918  9.61124391
   7.81271923  7.84180877  1.97375248
   7.81337583  7.79329985  9.65275789
  15.39909245  7.66598733  5.81290247
  15.29217409  7.66875913 13.46752221
   7.80038468 15.23029084  5.80029378
   7.97118653 15.35934035 13.48654087
   0.14255096  3.78564158  1.97157897
   0.03248802  3.95514428  9.59219377
   7.88101952  3.66550161  1.96477607
   7.72749833  3.78125360  9.61598548
   7.51755642 11.47902612  1.91559998
  15.33212485  3.87799178 13.49311534
  15.42517460 11.57925119  5.78299743
   0.10892627 11.58148534 13.47539268
   7.53514121  4.06890186  5.80260361
   7.67376337  3.93695784 13.50065052
   7.69388429 11.71012476  5.71656563
   7.82501587 11.58568714 13.46746284
   3.68657205  7.56264458  1.93971132
  11.58692799 15.42632775  1.94611654
  11.57754463 15.32183791  9.60418992
   3.86194612  0.07712583  5.79221316
   3.72913332 15.41377919 13.48203768
   3.93477498  7.92111325  5.80795970
   4.05063700  7.75349047 13.48823774
  11.56591565  7.82227147  5.79235682
  11.66292573  7.81144095 13.48360460
   3.95358408 11.70000998  1.91900134
   3.95178057 11.63380116  9.64328422
  11.56063995  4.04414456  9.61816491
  11.68855659 11.59533802  1.92188055
  11.65764107 11.59027848  9.62948318
   3.94941539  3.72359582  5.78656678
   3.92735980  3.80924444 13.50732456
  11.78030708  3.74273760  5.77857781
  11.65201410  3.73644494 13.51930407
   1.94639291  0.06682169  0.05874263
   1.92859631 15.26398863  7.73833060
   1.91927158  7.56815859  7.54412031
   9.63952234  0.07006191  0.13381738
   9.62498562 15.10461672  7.78289564
   9.62803126  7.48093985  7.63618753
   1.95898360  0.14715390 11.48167440
   1.91493983  7.87569131  3.94211213
   1.90440348  7.81041961 11.82683262
   9.62095810  0.07160235 11.39246665
   9.62970087  7.77236546  3.93574797
   9.64868125  7.77857202 11.71932678
   1.93143347  3.81135559 15.32609371
   1.91744426  4.01022290  7.64487840
   1.91722740 11.44965245  0.10961724
   1.90174028 11.76456530  7.75580588
   9.66154036  3.79217651 15.31198977
   1.92480622  3.63050198  3.99556871
   1.89959165 11.42820232 11.46474515
   9.63175222 11.43375648 11.39451899
   5.82341639  0.31800602  7.60314992
   5.75623437  7.60214403  0.19437457
  13.49442560  0.31536857  7.77496378
  13.49163379  7.64317311  0.05496138
   5.81740850 15.32299082  3.97550501
   5.76938974  7.49106687 11.37352789
  13.47992550 15.36873410  3.84505291
  13.48789859 15.18116559 11.51191134
   5.85151814  3.58965869  7.74519928
   5.79572295 11.69687416 15.30872387
   5.77394935 11.28140436  7.62669275
  13.49546588  3.67550120  7.82925358
  13.44487466 11.67284495 15.29788187
  13.46118433 11.31332597  7.64820190
   5.83351832  4.02000046  3.77005813
   5.80832921  3.97424155 11.56060060
   5.79594030 11.60480200  3.86965723
   5.75782500 11.81871587 11.75495700
  13.48417490  4.00179712  3.75626858
  13.49149430  4.04652200 11.50621879
  13.47596444 11.60637739  3.90727623
   0.01409704  1.95950684  0.01287934
   0.19160045  1.94485352  7.82124751
  15.28943599  9.64319123 15.33596896
   0.19928495  9.67166731  7.61142319
   7.74060173  1.91766582 15.34344800
   7.52116761  9.66212809 15.40652429
   7.92629129  9.59138463  7.76223703
  15.25621960  1.97759641  3.81418031
  15.34190441  9.61889450  3.96011979
  15.36815075  9.63556293 11.65572031
   7.65021329  9.65570124  3.94144820
  15.28084827  5.77393683  7.71641243
   7.46171278  5.72298025  7.85646522
   7.38043299 13.64271912  7.78845036
   0.11090792  5.77204225 11.57853479
  15.41616931 13.51908452  3.86339062
   0.17082102 13.51219517 11.51537032
   7.83322588  5.74029385  3.71057365
   7.79784470  5.75523756 11.47074509
   7.71270164 13.52882935  3.70439598
   7.88145250 13.49109051 11.51736687
   3.84414792  1.92310501 15.39958273
   3.68154115  1.92744394  7.72012971
   3.64548895  9.66842663  7.84112058
  11.52833038  1.94510944  0.10480131
  11.77151093  9.64333468  0.08335009
  11.33721976  9.64719026  7.76578100
   4.05150797  1.95683024  3.85346311
   4.02516763  1.91425433 11.61721796
   3.92318456  9.61812666  3.68369172
  11.76523928  1.95326053  3.77480213
  11.59845147  9.63937236  3.76079321
  11.59390904  9.63425106 11.49291386
   3.80000848  5.79939269 15.32611895
   3.74375242 13.47290811 15.38970340
  11.49096696  5.78227284 15.20719222
  11.79409487  5.75107685  7.56268052
  11.43979554 13.49478504  0.05028482
  11.88564450 13.54307842  7.69506213
   3.75527133  5.79681107 11.74295429
   3.85955619 13.51038598  3.93405202
   3.64743613 13.46866090 11.57620750
  11.46092627  5.77613633  4.11072806
  11.48104531  5.75781240 11.71962978
  11.55551230 13.51242411  3.80354236
  11.38896809 13.50332439 11.52288202
 


--------------------------------------------------------------------------------------------------------


 k-point  1 :   0.2500 0.2500 0.2500  plane waves:   93161
 k-point  2 :  -0.2500 0.2500 0.2500  plane waves:   93161
 k-point  3 :   0.2500-0.2500 0.2500  plane waves:   93161
 k-point  4 :  -0.2500-0.2500 0.2500  plane waves:   93161

 maximum and minimum number of plane-waves per node :     11686    11606

 maximum number of plane-waves:     93161
 maximum index in each direction: 
   IXMAX=   28   IYMAX=   28   IZMAX=   27
   IXMIN=  -28   IYMIN=  -28   IZMIN=  -28


 real space projection operators:
  total allocation   :     105612.33 KBytes
  max/ min on nodes  :      13242.21      13163.98


 parallel 3D FFT for wavefunctions:
    minimum data exchange during FFTs selected (reduces bandwidth)
 parallel 3D FFT for charge:
    minimum data exchange during FFTs selected (reduces bandwidth)


 total amount of memory used by VASP MPI-rank0   291473. kBytes
=======================================================================

   base      :      30000. kBytes
   nonlr-proj:      49438. kBytes
   fftplans  :      27976. kBytes
   grid      :      34041. kBytes
   one-center:       1026. kBytes
   wavefun   :     148992. kBytes
 
     INWAV:  cpu time    0.0000: real time    0.0000
 Broyden mixing: mesh for mixing (old mesh)
   NGX = 57   NGY = 57   NGZ = 57
  (NGX  =240   NGY  =240   NGZ  =240)
  gives a total of 185193 points

 initial charge density was supplied:
 charge density of overlapping atoms calculated
 number of electron    1923.0000000 magnetization       1.0000000
 keeping initial charge density in first step


--------------------------------------------------------------------------------------------------------


 Maximum index for non-local projection operator          967
 Maximum index for augmentation-charges         3291 (set IRDMAX)


--------------------------------------------------------------------------------------------------------


 First call to EWALD:  gamma=   0.115
 Maximum number of real-space cells 3x 3x 3
 Maximum number of reciprocal cells 3x 3x 3

    FEWALD:  cpu time    0.0171: real time    0.0176


--------------------------------------- Iteration      1(   1)  ---------------------------------------


    POTLOK:  cpu time    0.2782: real time    0.2939
    SETDIJ:  cpu time    1.3947: real time    1.3955
     EDDAV:  cpu time  111.6830: real time  112.5116
       DOS:  cpu time    0.0032: real time    0.0033
    --------------------------------------------
      LOOP:  cpu time  113.3592: real time  114.2043

 eigenvalue-minimisations  : 18648
 total energy-change (2. order) : 0.2840808E+05  (-0.9390419E+05)
 number of electron    1923.0000000 magnetization       1.0000000
 augmentation part     1923.0000000 magnetization       1.0000000

 Free energy of the ion-electron system (eV)
  ---------------------------------------------------
  alpha Z        PSCENC =      6118.73324990
  Ewald energy   TEWEN  =   -103569.65435512
  -Hartree energ DENC   =    -65078.41800378
  -exchange      EXHF   =         0.00000000
  -V(xc)+E(xc)   XCENC  =      8894.52473704
  PAW double counting   =    143584.62052475  -144174.89622836
  entropy T*S    EENTRO =        -0.00515323
  eigenvalues    EBANDS =      4055.92634682
  atomic energy  EATOM  =    178577.25249613
  Solvation  Ediel_sol  =         0.00000000
  ---------------------------------------------------
  free energy    TOTEN  =     28408.08361416 eV

  energy without entropy =    28408.08876739  energy(sigma->0) =    28408.08619078


--------------------------------------------------------------------------------------------------------




--------------------------------------- Iteration      1(   2)  ---------------------------------------


     EDDAV:  cpu time  111.8761: real time  112.7904
       DOS:  cpu time    0.0031: real time    0.0031
    --------------------------------------------
      LOOP:  cpu time  111.8791: real time  112.7934

 eigenvalue-minimisations  : 18624
 total energy-change (2. order) :-0.2431600E+05  (-0.2324977E+05)
 number of electron    1923.0000000 magnetization       1.0000000
 augmentation part     1923.0000000 magnetization       1.0000000

 Free energy of the ion-electron system (eV)
  ---------------------------------------------------
  alpha Z        PSCENC =      6118.73324990
  Ewald energy   TEWEN  =   -103569.65435512
  -Hartree energ DENC   =    -65078.41800378
  -exchange      EXHF   =         0.00000000
  -V(xc)+E(xc)   XCENC  =      8894.52473704
  PAW double counting   =    143584.62052475  -144174.89622836
  entropy T*S    EENTRO =        -0.00700297
  eigenvalues    EBANDS =    -20260.07133752
  atomic energy  EATOM  =    178577.25249613
  Solvation  Ediel_sol  =         0.00000000
  ---------------------------------------------------
  free energy    TOTEN  =      4092.08408008 eV

  energy without entropy =     4092.09108305  energy(sigma->0) =     4092.08758156


--------------------------------------------------------------------------------------------------------




--------------------------------------- Iteration      1(   3)  ---------------------------------------


     EDDAV:  cpu time  120.8589: real time  121.4598
       DOS:  cpu time    0.0027: real time    0.0027
    --------------------------------------------
      LOOP:  cpu time  120.8616: real time  121.4625

 eigenvalue-minimisations  : 20664
 total energy-change (2. order) :-0.5992972E+04  (-0.5840697E+04)
 number of electron    1923.0000000 magnetization       1.0000000
 augmentation part     1923.0000000 magnetization       1.0000000

 Free energy of the ion-electron system (eV)
  ---------------------------------------------------
  alpha Z        PSCENC =      6118.73324990
  Ewald energy   TEWEN  =   -103569.65435512
  -Hartree energ DENC   =    -65078.41800378
  -exchange      EXHF   =         0.00000000
  -V(xc)+E(xc)   XCENC  =      8894.52473704
  PAW double counting   =    143584.62052475  -144174.89622836
  entropy T*S    EENTRO =        -0.00187492
  eigenvalues    EBANDS =    -26253.04855870
  atomic energy  EATOM  =    178577.25249613
  Solvation  Ediel_sol  =         0.00000000
  ---------------------------------------------------
  free energy    TOTEN  =     -1900.88801305 eV

  energy without entropy =    -1900.88613813  energy(sigma->0) =    -1900.88707559


--------------------------------------------------------------------------------------------------------




--------------------------------------- Iteration      1(   4)  ---------------------------------------


     EDDAV:  cpu time  139.7241: real time  140.4184
       DOS:  cpu time    0.0020: real time    0.0020
    --------------------------------------------
      LOOP:  cpu time  139.7261: real time  140.4203

 eigenvalue-minimisations  : 25308
 total energy-change (2. order) :-0.4299718E+03  (-0.4264166E+03)
 number of electron    1923.0000000 magnetization       1.0000000
 augmentation part     1923.0000000 magnetization       1.0000000

 Free energy of the ion-electron system (eV)
  ---------------------------------------------------
  alpha Z        PSCENC =      6118.73324990
  Ewald energy   TEWEN  =   -103569.65435512
  -Hartree energ DENC   =    -65078.41800378
  -exchange      EXHF   =         0.00000000
  -V(xc)+E(xc)   XCENC  =      8894.52473704
  PAW double counting   =    143584.62052475  -144174.89622836
  entropy T*S    EENTRO =        -0.00000000
  eigenvalues    EBANDS =    -26683.02227097
  atomic energy  EATOM  =    178577.25249613
  Solvation  Ediel_sol  =         0.00000000
  ---------------------------------------------------
  free energy    TOTEN  =     -2330.85985040 eV

  energy without entropy =    -2330.85985040  energy(sigma->0) =    -2330.85985040


--------------------------------------------------------------------------------------------------------




--------------------------------------- Iteration      1(   5)  ---------------------------------------


     EDDAV:  cpu time  146.6863: real time  147.5508
       DOS:  cpu time    0.0020: real time    0.0020
    CHARGE:  cpu time    5.3354: real time    5.3401
    MIXING:  cpu time    0.0070: real time    0.0071
    --------------------------------------------
      LOOP:  cpu time  152.0307: real time  152.9000

 eigenvalue-minimisations  : 26676
 total energy-change (2. order) :-0.1360790E+02  (-0.1354460E+02)
 number of electron    1923.0000025 magnetization       1.0000000
 augmentation part      488.4385285 magnetization       0.0026929

 Broyden mixing:
  rms(total) = 0.22456E+02    rms(broyden)= 0.22454E+02
  rms(prec ) = 0.23929E+02
  weight for this iteration     100.00

 Free energy of the ion-electron system (eV)
  ---------------------------------------------------
  alpha Z        PSCENC =      6118.73324990
  Ewald energy   TEWEN  =   -103569.65435512
  -Hartree energ DENC   =    -65078.41800378
  -exchange      EXHF   =         0.00000000
  -V(xc)+E(xc)   XCENC  =      8894.52473704
  PAW double counting   =    143584.62052475  -144174.89622836
  entropy T*S    EENTRO =        -0.00000000
  eigenvalues    EBANDS =    -26696.63017366
  atomic energy  EATOM  =    178577.25249613
  Solvation  Ediel_sol  =         0.00000000
  ---------------------------------------------------
  free energy    TOTEN  =     -2344.46775309 eV

  energy without entropy =    -2344.46775309  energy(sigma->0) =    -2344.46775309


--------------------------------------------------------------------------------------------------------




--------------------------------------- Iteration      1(   6)  ---------------------------------------


    POTLOK:  cpu time    0.2633: real time    0.2635
    SETDIJ:  cpu time    1.3800: real time    1.3813
     EDDAV:  cpu time  145.6160: real time  146.4743
       DOS:  cpu time    0.0021: real time    0.0021
    CHARGE:  cpu time    5.2854: real time    5.2944
    MIXING:  cpu time    0.0300: real time    0.0300
    --------------------------------------------
      LOOP:  cpu time  152.5767: real time  153.4458

 eigenvalue-minimisations  : 26400
 total energy-change (2. order) : 0.5915300E+03  (-0.2667097E+03)
 number of electron    1923.0000026 magnetization       1.0000000
 augmentation part      494.7069314 magnetization       0.5291676

 Broyden mixing:
  rms(total) = 0.71248E+01    rms(broyden)= 0.71206E+01
  rms(prec ) = 0.73412E+01
  weight for this iteration     100.00

 eigenvalues of (default mixing * dielectric matrix)
  average eigenvalue GAMMA=   1.0445
  1.0445

 Free energy of the ion-electron system (eV)
  ---------------------------------------------------
  alpha Z        PSCENC =      6118.73324990
  Ewald energy   TEWEN  =   -103569.65435512
  -Hartree energ DENC   =    -66033.62053660
  -exchange      EXHF   =         0.00000000
  -V(xc)+E(xc)   XCENC  =      9027.57683221
  PAW double counting   =    166550.92084897  -167452.83018465
  entropy T*S    EENTRO =        -0.00000000
  eigenvalues    EBANDS =    -24971.31608020
  atomic energy  EATOM  =    178577.25249613
  Solvation  Ediel_sol  =         0.00000000
  ---------------------------------------------------
  free energy    TOTEN  =     -1752.93772935 eV

  energy without entropy =    -1752.93772935  energy(sigma->0) =    -1752.93772935


--------------------------------------------------------------------------------------------------------




--------------------------------------- Iteration      1(   7)  ---------------------------------------


    POTLOK:  cpu time    0.3189: real time    0.3682
    SETDIJ:  cpu time    1.3857: real time    1.3868
     EDDAV:  cpu time  144.6327: real time  145.4970
       DOS:  cpu time    0.0020: real time    0.0020
    CHARGE:  cpu time    5.2688: real time    5.2733
    MIXING:  cpu time    0.0083: real time    0.0094
    --------------------------------------------
      LOOP:  cpu time  151.6163: real time  152.5367

 eigenvalue-minimisations  : 25956
 total energy-change (2. order) :-0.1017607E+02  (-0.3570546E+02)
 number of electron    1923.0000026 magnetization       1.0000000
 augmentation part      490.1784028 magnetization       0.6171078

 Broyden mixing:
  rms(total) = 0.42810E+01    rms(broyden)= 0.42809E+01
  rms(prec ) = 0.44192E+01
  weight for this iteration     100.00

 eigenvalues of (default mixing * dielectric matrix)
  average eigenvalue GAMMA=   1.3442
  0.8209  1.8674

 Free energy of the ion-electron system (eV)
  ---------------------------------------------------
  alpha Z        PSCENC =      6118.73324990
  Ewald energy   TEWEN  =   -103569.65435512
  -Hartree energ DENC   =    -65578.69033639
  -exchange      EXHF   =         0.00000000
  -V(xc)+E(xc)   XCENC  =      8991.09428161
  PAW double counting   =    178720.21298326  -179640.39003699
  entropy T*S    EENTRO =        -0.00000000
  eigenvalues    EBANDS =    -25381.67208399
  atomic energy  EATOM  =    178577.25249613
  Solvation  Ediel_sol  =         0.00000000
  ---------------------------------------------------
  free energy    TOTEN  =     -1763.11380158 eV

  energy without entropy =    -1763.11380158  energy(sigma->0) =    -1763.11380158


--------------------------------------------------------------------------------------------------------




--------------------------------------- Iteration      1(   8)  ---------------------------------------


    POTLOK:  cpu time    0.2635: real time    0.2637
    SETDIJ:  cpu time    1.3851: real time    1.3863
     EDDAV:  cpu time  138.4806: real time  139.1899
       DOS:  cpu time    0.0020: real time    0.0020
    CHARGE:  cpu time    5.3091: real time    5.3133
    MIXING:  cpu time    0.0133: real time    0.0133
    --------------------------------------------
      LOOP:  cpu time  145.4535: real time  146.1684

 eigenvalue-minimisations  : 25248
 total energy-change (2. order) : 0.4749159E+01  (-0.5860738E+01)
 number of electron    1923.0000026 magnetization       1.0000000
 augmentation part      498.5662809 magnetization       0.5728057

 Broyden mixing:
  rms(total) = 0.11812E+01    rms(broyden)= 0.11809E+01
  rms(prec ) = 0.12799E+01
  weight for this iteration     100.00

 eigenvalues of (default mixing * dielectric matrix)
  average eigenvalue GAMMA=   1.1909
  1.7578  1.1004  0.7144

 Free energy of the ion-electron system (eV)
  ---------------------------------------------------
  alpha Z        PSCENC =      6118.73324990
  Ewald energy   TEWEN  =   -103569.65435512
  -Hartree energ DENC   =    -64872.92266833
  -exchange      EXHF   =         0.00000000
  -V(xc)+E(xc)   XCENC  =      8959.59488062
  PAW double counting   =    193217.78529548  -194201.93054972
  entropy T*S    EENTRO =        -0.00000000
  eigenvalues    EBANDS =    -25987.22299140
  atomic energy  EATOM  =    178577.25249613
  Solvation  Ediel_sol  =         0.00000000
  ---------------------------------------------------
  free energy    TOTEN  =     -1758.36464243 eV

  energy without entropy =    -1758.36464243  energy(sigma->0) =    -1758.36464243


--------------------------------------------------------------------------------------------------------




--------------------------------------- Iteration      1(   9)  ---------------------------------------


    POTLOK:  cpu time    0.3079: real time    0.3101
    SETDIJ:  cpu time    1.4244: real time    1.4254
     EDDAV:  cpu time  142.3711: real time  143.2467
       DOS:  cpu time    0.0020: real time    0.0020
    CHARGE:  cpu time    5.3024: real time    5.3065
    MIXING:  cpu time    0.0088: real time    0.0095
    --------------------------------------------
      LOOP:  cpu time  149.4164: real time  150.3002

 eigenvalue-minimisations  : 25788
 total energy-change (2. order) : 0.5137166E+00  (-0.1181487E+01)
 number of electron    1923.0000026 magnetization       1.0000000
 augmentation part      496.7333420 magnetization       0.5918830

 Broyden mixing:
  rms(total) = 0.57910E+00    rms(broyden)= 0.57894E+00
  rms(prec ) = 0.61769E+00
  weight for this iteration     100.00

 eigenvalues of (default mixing * dielectric matrix)
  average eigenvalue GAMMA=   1.1146
  1.9515  1.0255  0.8294  0.6519

[...]
   81        1.574   3.461   0.000   5.035
   82        1.574   3.460   0.000   5.035
   83        1.574   3.460   0.000   5.034
   84        1.576   3.470   0.000   5.046
   85        1.575   3.462   0.000   5.038
   86        1.575   3.466   0.000   5.041
   87        1.575   3.462   0.000   5.037
   88        1.574   3.463   0.000   5.037
   89        1.575   3.461   0.000   5.036
   90        1.575   3.457   0.000   5.032
   91        1.574   3.461   0.000   5.035
   92        1.574   3.460   0.000   5.035
   93        1.577   3.466   0.000   5.043
   94        1.577   3.470   0.000   5.046
   95        1.576   3.474   0.000   5.050
   96        1.575   3.462   0.000   5.037
   97        1.575   3.465   0.000   5.040
   98        1.576   3.471   0.000   5.047
   99        1.574   3.462   0.000   5.037
  100        1.575   3.457   0.000   5.033
  101        1.574   3.458   0.000   5.032
  102        1.570   3.460   0.000   5.029
  103        1.575   3.459   0.000   5.034
  104        1.574   3.456   0.000   5.030
  105        1.577   3.467   0.000   5.044
  106        1.575   3.462   0.000   5.037
  107        1.575   3.461   0.000   5.036
  108        1.576   3.473   0.000   5.049
  109        1.575   3.462   0.000   5.037
  110        1.575   3.460   0.000   5.035
  111        1.576   3.469   0.000   5.045
  112        1.577   3.464   0.000   5.041
  113        1.577   3.471   0.000   5.047
  114        1.577   3.473   0.000   5.050
  115        1.575   3.465   0.000   5.039
  116        1.567   3.481   0.000   5.048
  117        1.575   3.461   0.000   5.036
  118        1.576   3.462   0.000   5.038
  119        1.576   3.472   0.000   5.048
  120        1.575   3.460   0.000   5.035
  121        1.574   3.462   0.000   5.037
  122        1.577   3.467   0.000   5.044
  123        1.577   3.472   0.000   5.050
  124        1.576   3.465   0.000   5.041
  125        1.574   3.470   0.000   5.045
  126        1.576   3.468   0.000   5.044
  127        1.574   3.455   0.000   5.029
  128        1.574   3.457   0.000   5.031
  129        1.577   3.468   0.000   5.045
  130        1.737   4.369   0.000   6.106
  131        1.737   4.370   0.000   6.106
  132        1.737   4.378   0.000   6.115
  133        1.738   4.386   0.000   6.124
  134        1.738   4.385   0.000   6.124
  135        1.738   4.373   0.000   6.111
  136        1.736   4.376   0.000   6.112
  137        1.738   4.379   0.000   6.117
  138        1.738   4.379   0.000   6.118
  139        1.739   4.385   0.000   6.124
  140        1.739   4.385   0.000   6.124
  141        1.738   4.379   0.000   6.117
  142        1.738   4.379   0.000   6.117
  143        1.738   4.385   0.000   6.123
  144        1.738   4.386   0.000   6.124
  145        1.739   4.382   0.000   6.121
  146        1.737   4.381   0.000   6.118
  147        1.736   4.368   0.000   6.104
  148        1.736   4.367   0.000   6.103
  149        1.739   4.383   0.000   6.122
  150        1.738   4.387   0.000   6.126
  151        1.738   4.381   0.000   6.119
  152        1.738   4.378   0.000   6.116
  153        1.737   4.379   0.000   6.116
  154        1.737   4.371   0.000   6.108
  155        1.737   4.370   0.000   6.107
  156        1.737   4.369   0.000   6.105
  157        1.737   4.367   0.000   6.104
  158        1.738   4.372   0.000   6.110
  159        1.738   4.374   0.000   6.112
  160        1.736   4.366   0.000   6.103
  161        1.736   4.368   0.000   6.104
  162        1.737   4.368   0.000   6.105
  163        1.736   4.364   0.000   6.100
  164        1.738   4.377   0.000   6.115
  165        1.737   4.367   0.000   6.104
  166        1.736   4.370   0.000   6.106
  167        1.737   4.368   0.000   6.104
  168        1.737   4.369   0.000   6.106
  169        1.738   4.374   0.000   6.112
  170        1.738   4.378   0.000   6.115
  171        1.737   4.369   0.000   6.106
  172        1.737   4.385   0.000   6.122
  173        1.737   4.364   0.000   6.101
  174        1.737   4.368   0.000   6.105
  175        1.738   4.376   0.000   6.115
  176        1.736   4.363   0.000   6.099
  177        1.737   4.377   0.000   6.114
  178        1.737   4.367   0.000   6.104
  179        1.738   4.373   0.000   6.111
  180        1.738   4.377   0.000   6.115
  181        1.736   4.367   0.000   6.103
  182        1.737   4.376   0.000   6.113
  183        1.737   4.368   0.000   6.104
  184        1.737   4.377   0.000   6.114
  185        1.737   4.380   0.000   6.118
  186        1.737   4.378   0.000   6.115
  187        1.737   4.369   0.000   6.106
  188        1.738   4.376   0.000   6.114
  189        1.738   4.377   0.000   6.115
  190        1.737   4.376   0.000   6.113
  191        1.739   4.380   0.000   6.119
  192        1.737   4.367   0.000   6.104
  193        1.738   4.383   0.000   6.121
  194        1.736   4.366   0.000   6.103
  195        1.737   4.369   0.000   6.106
  196        1.738   4.377   0.000   6.115
  197        1.737   4.368   0.000   6.105
  198        1.737   4.376   0.000   6.113
  199        1.738   4.376   0.000   6.114
  200        1.738   4.378   0.000   6.116
  201        1.738   4.380   0.000   6.118
  202        1.738   4.374   0.000   6.112
  203        1.738   4.378   0.000   6.115
  204        1.738   4.373   0.000   6.112
  205        1.737   4.376   0.000   6.113
  206        1.736   4.366   0.000   6.103
  207        1.737   4.369   0.000   6.106
  208        1.738   4.377   0.000   6.115
  209        1.737   4.376   0.000   6.113
  210        1.736   4.366   0.000   6.103
  211        1.737   4.371   0.000   6.108
  212        1.737   4.368   0.000   6.105
  213        1.739   4.371   0.000   6.110
  214        1.736   4.367   0.000   6.103
  215        1.738   4.376   0.000   6.114
  216        1.736   4.367   0.000   6.103
  217        1.737   4.367   0.000   6.103
  218        1.736   4.381   0.000   6.117
  219        1.738   4.378   0.000   6.116
  220        1.738   4.380   0.000   6.118
  221        1.738   4.381   0.000   6.119
  222        1.737   4.380   0.000   6.117
  223        1.737   4.378   0.000   6.116
  224        1.738   4.379   0.000   6.117
  225        1.738   4.378   0.000   6.116
  226        1.738   4.377   0.000   6.115
  227        1.737   4.380   0.000   6.117
  228        1.738   4.376   0.000   6.114
  229        1.738   4.377   0.000   6.115
  230        1.736   4.370   0.000   6.106
  231        1.738   4.377   0.000   6.115
  232        1.736   4.368   0.000   6.104
  233        1.738   4.381   0.000   6.119
  234        1.736   4.364   0.000   6.100
  235        1.737   4.365   0.000   6.101
  236        1.738   4.387   0.000   6.126
  237        1.739   4.384   0.000   6.123
  238        1.737   4.376   0.000   6.112
  239        1.738   4.376   0.000   6.114
  240        1.737   4.378   0.000   6.115
  241        1.738   4.375   0.000   6.113
  242        1.738   4.385   0.000   6.123
  243        1.738   4.387   0.000   6.125
  244        1.737   4.381   0.000   6.118
  245        1.738   4.377   0.000   6.115
  246        1.738   4.377   0.000   6.115
  247        1.738   4.384   0.000   6.123
  248        1.737   4.373   0.000   6.111
  249        1.738   4.385   0.000   6.123
  250        1.737   4.372   0.000   6.110
  251        1.738   4.377   0.000   6.115
  252        1.737   4.380   0.000   6.117
  253        1.738   4.375   0.000   6.113
  254        1.739   4.385   0.000   6.124
  255        1.738   4.376   0.000   6.114
  256        1.738   4.387   0.000   6.125
  257        1.738   4.377   0.000   6.115
--------------------------------------------------
tot        345.4241194.882 112.1951652.501
 


 magnetization (x)
 
# of ion       s       p       d       tot
------------------------------------------
    1       -0.000   0.000   0.000  -0.000
    2       -0.000  -0.000  -0.000  -0.000
    3        0.000   0.000   0.000   0.000
    4       -0.000  -0.000  -0.000  -0.000
    5        0.000   0.000   0.000   0.000
    6        0.000   0.000   0.000   0.000
    7        0.000   0.000   0.016   0.017
    8        0.000   0.000   0.001   0.001
    9       -0.000  -0.000   0.005   0.005
   10       -0.000  -0.000   0.000  -0.000
   11       -0.000  -0.000   0.000   0.000
   12       -0.000  -0.000  -0.000  -0.000
   13       -0.000  -0.000  -0.000  -0.000
   14        0.000   0.000   0.001   0.001
   15        0.000   0.000   0.001   0.001
   16        0.000   0.000   0.002   0.002
   17        0.000   0.000   0.003   0.004
   18       -0.000  -0.000  -0.000  -0.000
   19        0.000   0.000   0.000   0.000
   20       -0.000  -0.000   0.000   0.000
   21       -0.000  -0.000   0.000   0.000
   22        0.000   0.000   0.000   0.000
   23        0.000   0.000   0.002   0.002
   24       -0.000  -0.000   0.000   0.000
   25        0.005   0.006   0.886   0.897
   26       -0.000  -0.000  -0.000  -0.000
   27       -0.000  -0.000   0.000  -0.000
   28       -0.000  -0.000   0.000   0.000
   29       -0.000  -0.000  -0.000  -0.000
   30        0.000   0.000   0.000   0.000
   31        0.000   0.000   0.000   0.000
   32        0.000   0.000   0.014   0.014
   33        0.000   0.000   0.038   0.039
   34       -0.000  -0.000  -0.000  -0.000
   35        0.000   0.000   0.000   0.000
   36       -0.000  -0.000   0.000  -0.000
   37       -0.000  -0.000   0.000   0.000
   38       -0.000  -0.000   0.000   0.000
   39        0.000   0.000   0.000   0.000
   40       -0.000  -0.000  -0.000  -0.000
   41        0.000   0.000   0.000   0.000
   42        0.000  -0.000   0.000   0.000
   43       -0.000  -0.000   0.000   0.000
   44       -0.000  -0.000  -0.000  -0.000
   45       -0.000  -0.000   0.000   0.000
   46       -0.000  -0.000  -0.000  -0.000
   47       -0.000  -0.000   0.000   0.000
   48       -0.000  -0.000   0.000   0.000
   49       -0.000  -0.000   0.000  -0.000
   50       -0.000  -0.000  -0.000  -0.000
   51       -0.000  -0.000   0.000   0.000
   52        0.000   0.000   0.000   0.000
   53       -0.000  -0.000   0.001   0.001
   54       -0.000  -0.000  -0.000  -0.000
   55       -0.000  -0.000   0.000   0.000
   56        0.000   0.000   0.000   0.000
   57       -0.000  -0.000   0.004   0.003
   58       -0.000  -0.000  -0.000  -0.000
   59       -0.000  -0.000   0.000   0.000
   60       -0.000  -0.000   0.000   0.000
   61       -0.000  -0.000   0.000   0.000
   62       -0.000  -0.000  -0.000  -0.000
   63       -0.000  -0.000  -0.000  -0.000
   64       -0.000  -0.000  -0.000  -0.000
   65       -0.000  -0.000   0.000   0.000
   66       -0.000  -0.000   0.000  -0.000
   67       -0.000  -0.000   0.000  -0.000
   68        0.000   0.000   0.000   0.000
   69       -0.000  -0.001   0.000  -0.001
   70       -0.000  -0.000   0.000  -0.000
   71       -0.000  -0.000   0.000  -0.000
   72       -0.000  -0.000   0.000  -0.000
   73       -0.001  -0.018   0.000  -0.019
   74       -0.000  -0.000   0.000  -0.000
   75       -0.000  -0.000   0.000  -0.000
   76       -0.000  -0.000   0.000  -0.000
   77       -0.000  -0.000   0.000  -0.000
   78       -0.000  -0.000   0.000  -0.000
   79       -0.000  -0.000   0.000  -0.000
   80       -0.000  -0.000   0.000  -0.000
   81       -0.000  -0.000   0.000  -0.000
   82        0.000  -0.000   0.000   0.000
   83       -0.000  -0.000   0.000  -0.000
   84        0.000  -0.000   0.000  -0.000
   85       -0.000  -0.000   0.000  -0.000
   86       -0.000  -0.000   0.000  -0.000
   87       -0.000  -0.000   0.000  -0.000
   88       -0.000  -0.000   0.000  -0.000
   89        0.000   0.000   0.000   0.000
   90       -0.000  -0.000   0.000  -0.000
   91       -0.000  -0.000   0.000  -0.000
   92       -0.000  -0.000   0.000  -0.000
   93       -0.000  -0.000   0.000  -0.000
   94       -0.000  -0.000   0.000  -0.000
   95       -0.001  -0.017   0.000  -0.018
   96        0.000  -0.000   0.000  -0.000
   97       -0.000  -0.000   0.000  -0.000
   98       -0.000  -0.000   0.000  -0.000
   99       -0.000  -0.000   0.000  -0.000
  100       -0.000  -0.001   0.000  -0.001
  101       -0.000  -0.000   0.000  -0.000
  102       -0.000  -0.000   0.000  -0.000
  103        0.000  -0.000   0.000  -0.000
  104       -0.000  -0.000   0.000  -0.000
  105       -0.000  -0.000   0.000  -0.000
  106       -0.000  -0.000   0.000  -0.000
  107       -0.000  -0.000   0.000  -0.000
  108       -0.000  -0.000   0.000  -0.000
  109       -0.000  -0.000   0.000  -0.000
  110        0.000   0.000   0.000   0.000
  111       -0.000  -0.000   0.000  -0.000
  112       -0.000  -0.002   0.000  -0.002
  113        0.000   0.000   0.000   0.000
  114       -0.000  -0.000   0.000  -0.000
  115       -0.000  -0.000   0.000  -0.000
  116       -0.000  -0.001   0.000  -0.001
  117        0.000   0.000   0.000   0.000
  118        0.000   0.000   0.000   0.000
  119       -0.000  -0.000   0.000  -0.000
  120       -0.000  -0.000   0.000  -0.000
  121       -0.000  -0.000   0.000  -0.000
  122        0.000   0.000   0.000   0.000
  123       -0.000  -0.000   0.000  -0.000
  124       -0.000  -0.000   0.000  -0.000
  125       -0.000  -0.000   0.000  -0.000
  126       -0.000  -0.000   0.000  -0.000
  127       -0.000  -0.000   0.000  -0.000
  128       -0.000  -0.000   0.000  -0.000
  129       -0.000  -0.000   0.000  -0.000
  130        0.000   0.000   0.000   0.000
  131       -0.000  -0.000   0.000  -0.000
  132        0.000   0.000   0.000   0.000
  133        0.000   0.000   0.000   0.000
  134        0.000   0.000   0.000   0.000
  135        0.000   0.000   0.000   0.000
  136       -0.000   0.000   0.000   0.000
  137       -0.000  -0.000   0.000  -0.000
  138        0.000   0.000   0.000   0.000
  139        0.000   0.000   0.000   0.000
  140        0.000  -0.000   0.000   0.000
  141        0.000   0.000   0.000   0.000
  142        0.000  -0.000   0.000  -0.000
  143       -0.000  -0.000   0.000  -0.000
  144       -0.000  -0.000   0.000  -0.000
  145       -0.000  -0.000   0.000  -0.000
  146        0.000   0.000   0.000   0.000
  147        0.000  -0.000   0.000  -0.000
  148       -0.000  -0.000   0.000  -0.000
  149       -0.000  -0.000   0.000  -0.000
  150       -0.000  -0.000   0.000  -0.000
  151       -0.000  -0.001   0.000  -0.002
  152       -0.000  -0.000   0.000  -0.000
  153       -0.000  -0.000   0.000  -0.000
  154       -0.000  -0.000   0.000  -0.000
  155       -0.000  -0.000   0.000  -0.000
  156       -0.000  -0.000   0.000  -0.000
  157       -0.000  -0.000   0.000  -0.000
  158       -0.000  -0.000   0.000  -0.000
  159        0.000  -0.000   0.000  -0.000
  160       -0.000  -0.000   0.000  -0.000
  161        0.000  -0.000   0.000  -0.000
  162       -0.000  -0.000   0.000  -0.000
  163       -0.000  -0.000   0.000  -0.000
  164       -0.000  -0.000   0.000  -0.000
  165       -0.000  -0.000   0.000  -0.000
  166       -0.000  -0.000   0.000  -0.000
  167       -0.000  -0.000   0.000  -0.000
  168        0.000   0.000   0.000   0.000
  169       -0.000  -0.000   0.000  -0.000
  170        0.000   0.000   0.000   0.000
  171        0.000   0.000   0.000   0.000
  172       -0.000  -0.000   0.000  -0.000
  173       -0.000  -0.000   0.000  -0.000
  174       -0.000  -0.000   0.000  -0.000
  175       -0.000  -0.000   0.000  -0.000
  176       -0.000  -0.000   0.000  -0.000
  177       -0.000  -0.000   0.000  -0.000
  178       -0.000  -0.000   0.000  -0.000
  179       -0.000  -0.000   0.000  -0.000
  180       -0.000  -0.000   0.000  -0.000
  181       -0.000  -0.000   0.000  -0.000
  182       -0.000  -0.000   0.000  -0.000
  183        0.000   0.000   0.000   0.000
  184        0.000  -0.000   0.000  -0.000
  185       -0.000   0.000   0.000   0.000
  186        0.000  -0.000   0.000  -0.000
  187       -0.000  -0.000   0.000  -0.000
  188        0.000   0.000   0.000   0.000
  189       -0.000  -0.000   0.000  -0.000
  190       -0.000  -0.000   0.000  -0.000
  191       -0.000  -0.000   0.000  -0.000
  192       -0.000  -0.000   0.000  -0.000
  193        0.000  -0.000   0.000  -0.000
  194        0.000  -0.000   0.000  -0.000
  195       -0.000  -0.000   0.000  -0.000
  196       -0.000  -0.000   0.000  -0.000
  197       -0.000  -0.000   0.000  -0.000
  198       -0.000  -0.000   0.000  -0.000
  199       -0.000  -0.000   0.000  -0.000
  200       -0.000  -0.000   0.000  -0.000
  201       -0.000  -0.004   0.000  -0.004
  202       -0.000  -0.000   0.000  -0.000
  203       -0.000  -0.000   0.000  -0.000
  204       -0.000  -0.000   0.000  -0.000
  205       -0.000  -0.000   0.000  -0.000
  206       -0.000  -0.000   0.000  -0.000
  207       -0.000  -0.000   0.000  -0.000
  208       -0.000  -0.000   0.000  -0.000
  209       -0.000  -0.000   0.000  -0.000
  210       -0.000  -0.000   0.000  -0.000
  211       -0.000  -0.000   0.000  -0.000
  212        0.000   0.000   0.000   0.000
  213       -0.000  -0.000   0.000  -0.000
  214       -0.000  -0.000   0.000  -0.000
  215       -0.000  -0.000   0.000  -0.000
  216       -0.000  -0.000   0.000  -0.000
  217       -0.000  -0.000   0.000  -0.000
  218       -0.000   0.001   0.000   0.001
  219        0.000   0.000   0.000   0.000
  220        0.000  -0.000   0.000  -0.000
  221       -0.000  -0.000   0.000  -0.000
  222       -0.000  -0.000   0.000  -0.000
  223       -0.000  -0.000   0.000  -0.000
  224       -0.000  -0.000   0.000  -0.000
  225       -0.000  -0.001   0.000  -0.001
  226        0.000   0.000   0.000   0.000
  227        0.000   0.000   0.000   0.000
  228       -0.000  -0.000   0.000  -0.000
  229       -0.000  -0.000   0.000  -0.000
  230        0.000   0.000   0.000   0.000
  231       -0.000   0.000   0.000   0.000
  232       -0.000  -0.000   0.000  -0.000
  233        0.000   0.000   0.000   0.000
  234       -0.000  -0.000   0.000  -0.000
  235        0.000  -0.000   0.000  -0.000
  236        0.000   0.000   0.000   0.000
  237        0.000  -0.000   0.000  -0.000
  238       -0.000  -0.000   0.000  -0.000
  239        0.000  -0.000   0.000  -0.000
  240        0.000  -0.000   0.000  -0.000
  241       -0.000  -0.000   0.000  -0.000
  242       -0.000  -0.000   0.000  -0.000
  243       -0.000  -0.000   0.000  -0.000
  244       -0.000  -0.000   0.000  -0.000
  245        0.000   0.000   0.000   0.000
  246       -0.000  -0.000   0.000  -0.000
  247        0.000   0.000   0.000   0.000
  248       -0.000  -0.000   0.000  -0.000
  249       -0.000  -0.000   0.000  -0.000
  250       -0.000  -0.000   0.000  -0.000
  251        0.000  -0.000   0.000   0.000
  252       -0.000  -0.000   0.000  -0.000
  253       -0.000  -0.000   0.000  -0.000
  254       -0.000  -0.000   0.000  -0.000
  255       -0.000  -0.000   0.000  -0.000
  256       -0.000  -0.000   0.000  -0.000
  257       -0.000  -0.000   0.000  -0.000
--------------------------------------------------
tot          0.001  -0.043   0.976   0.935
 

 total amount of memory used by VASP MPI-rank0   291473. kBytes
=======================================================================

   base      :      30000. kBytes
   nonlr-proj:      49438. kBytes
   fftplans  :      27976. kBytes
   grid      :      34041. kBytes
   one-center:       1026. kBytes
   wavefun   :     148992. kBytes
 
  
  
 General timing and accounting informations for this job:
 ========================================================
  
                  Total CPU time used (sec):     6051.648
                            User time (sec):     5630.998
                          System time (sec):      420.651
                         Elapsed time (sec):     6095.731
  
                   Maximum memory used (kb):      631204.
                   Average memory used (kb):           0.
  
                          Minor page faults:       277219
                          Major page faults:            2
                 Voluntary context switches:        38651
