       N       E                     dE             d eps       ncg     rms          rms(c)
DAV:   1    -0.207841515193E+03   -0.20784E+03   -0.97235E-01  2560   0.649E+00    0.103E-01
DAV:   2    -0.207841652950E+03   -0.13776E-03   -0.14569E-04  3232   0.479E-02    0.615E-02
DAV:   3    -0.207841770449E+03   -0.11750E-03   -0.62325E-05  3136   0.330E-02    0.401E-02
DAV:   4    -0.207841817780E+03   -0.47332E-04   -0.46195E-05  2976   0.293E-02    0.145E-02
DAV:   5    -0.207841826951E+03   -0.91704E-05   -0.67642E-05  2136   0.108E-02    0.364E-02
DAV:   6    -0.207841826456E+03    0.49493E-06   -0.14122E-06  1704   0.415E-03
   1 F= -.20784183E+03 E0= -.20784183E+03  d E =-.207842E+03  mag=     2.0000
