 vasp.5.4.4.18Apr17-6-g9f103f2a35 (build Apr 30 2017 20:10:35) complex          
  
 executed on             LinuxIFC date 2017.08.04  13:11:54
 running on   64 total cores
 distrk:  each k-point on   64 cores,    1 groups
 distr:  one band on NCORES_PER_BAND=   8 cores,    8 groups


--------------------------------------------------------------------------------------------------------


 INCAR:
 POTCAR:   PAW_PBE Ti_pv 07Sep2000                
 POTCAR:   PAW_PBE O 08Apr2002                    
 POTCAR:    PAW_PBE F 08Apr2002                   
 POTCAR:   PAW_PBE Ti_pv 07Sep2000                
   VRHFIN =Ti: d3 s1                                                            
   LEXCH  = PE                                                                  
   EATOM  =  1042.3781 eV,   76.6126 Ry                                         
                                                                                
   TITEL  = PAW_PBE Ti_pv 07Sep2000                                             
   LULTRA =        F    use ultrasoft PP ?                                      
   IUNSCR =        1    unscreen: 0-lin 1-nonlin 2-no                           
   RPACOR =    2.200    partial core radius                                     
   POMASS =   47.880; ZVAL   =   10.000    mass and valenz                      
   RCORE  =    2.500    outmost cutoff radius                                   
   RWIGS  =    2.500; RWIGS  =    1.323    wigner-seitz radius (au A)           
   ENMAX  =  222.338; ENMIN  =  166.753 eV                                      
   RCLOC  =    1.701    cutoff for local pot                                    
   LCOR   =        T    correct aug charges                                     
   LPAW   =        T    paw PP                                                  
   EAUG   =  482.848                                                            
   DEXC   =    -.008                                                            
   RMAX   =    3.092    core radius for proj-oper                               
   RAUG   =    1.300    factor for augmentation sphere                          
   RDEP   =    2.538    radius for radial grids                                 
   QCUT   =   -4.042; QGAM   =    8.085    optimization parameters              
                                                                                
   Description                                                                  
     l     E      TYP  RCUT    TYP  RCUT                                        
     1   .000     23  2.300                                                     
     1  -.100     23  2.300                                                     
     2   .000     23  2.500                                                     
     2   .000     23  2.500                                                     
     0   .000     23  2.500                                                     
     0  1.500     23  2.500                                                     
     3   .000      7   .000                                                     
  local pseudopotential read in
  partial core-charges read in
  atomic valenz-charges read in
  non local Contribution for L=           1  read in
    real space projection operators read in
  non local Contribution for L=           1  read in
    real space projection operators read in
  non local Contribution for L=           2  read in
    real space projection operators read in
  non local Contribution for L=           2  read in
    real space projection operators read in
  non local Contribution for L=           0  read in
    real space projection operators read in
  non local Contribution for L=           0  read in
    real space projection operators read in
    PAW grid and wavefunctions read in
 
   number of l-projection  operators is LMAX  =           6
   number of lm-projection operators is LMMAX =          18
 
 POTCAR:   PAW_PBE O 08Apr2002                    
   VRHFIN =O: s2p4                                                              
   LEXCH  = PE                                                                  
   EATOM  =   432.3788 eV,   31.7789 Ry                                         
                                                                                
   TITEL  = PAW_PBE O 08Apr2002                                                 
   LULTRA =        F    use ultrasoft PP ?                                      
   IUNSCR =        0    unscreen: 0-lin 1-nonlin 2-no                           
   RPACOR =     .000    partial core radius                                     
   POMASS =   16.000; ZVAL   =    6.000    mass and valenz                      
   RCORE  =    1.520    outmost cutoff radius                                   
   RWIGS  =    1.550; RWIGS  =     .820    wigner-seitz radius (au A)           
   ENMAX  =  400.000; ENMIN  =  300.000 eV                                      
   ICORE  =        2    local potential                                         
   LCOR   =        T    correct aug charges                                     
   LPAW   =        T    paw PP                                                  
   EAUG   =  605.392                                                            
   DEXC   =     .000                                                            
   RMAX   =    2.264    core radius for proj-oper                               
   RAUG   =    1.300    factor for augmentation sphere                          
   RDEP   =    1.550    radius for radial grids                                 
   QCUT   =   -5.520; QGAM   =   11.041    optimization parameters              
                                                                                
   Description                                                                  
     l     E      TYP  RCUT    TYP  RCUT                                        
     0   .000     23  1.200                                                     
     0  -.700     23  1.200                                                     
     1   .000     23  1.520                                                     
     1   .600     23  1.520                                                     
     2   .000      7  1.500                                                     
  local pseudopotential read in
  atomic valenz-charges read in
  non local Contribution for L=           0  read in
    real space projection operators read in
  non local Contribution for L=           0  read in
    real space projection operators read in
  non local Contribution for L=           1  read in
    real space projection operators read in
  non local Contribution for L=           1  read in
    real space projection operators read in
    PAW grid and wavefunctions read in
 
   number of l-projection  operators is LMAX  =           4
   number of lm-projection operators is LMMAX =           8
 
 POTCAR:    PAW_PBE F 08Apr2002                   
   VRHFIN =F: s2p5                                                              
   LEXCH  = PE                                                                  
   EATOM  =   659.6475 eV,   48.4827 Ry                                         
                                                                                
   TITEL  = PAW_PBE F 08Apr2002                                                 
   LULTRA =        F    use ultrasoft PP ?                                      
   IUNSCR =        1    unscreen: 0-lin 1-nonlin 2-no                           
   RPACOR =    1.200    partial core radius                                     
   POMASS =   18.998; ZVAL   =    7.000    mass and valenz                      
   RCORE  =    1.520    outmost cutoff radius                                   
   RWIGS  =    1.500; RWIGS  =    0.794    wigner-seitz radius (au A)           
   ENMAX  =  400.000; ENMIN  =  300.000 eV                                      
   ICORE  =        2    local potential                                         
   LCOR   =        T    correct aug charges                                     
   LPAW   =        T    paw PP                                                  
   EAUG   =  613.614                                                            
   RMAX   =    1.555    core radius for proj-oper                               
   RAUG   =    1.300    factor for augmentation sphere                          
   RDEP   =    1.539    radius for radial grids                                 
   RDEPT  =    1.299    core radius for aug-charge                              
                                                                                
   Atomic configuration                                                         
    4 entries                                                                   
     n  l   j            E        occ.                                          
     1  0  0.50      -663.3661   2.0000                                         
     2  0  0.50       -29.8995   2.0000                                         
     2  1  0.50       -11.1114   5.0000                                         
     3  2  1.50       -10.8847   0.0000                                         
   Description                                                                  
     l       E           TYP  RCUT    TYP  RCUT                                 
     0    -29.8995018     23  1.200                                             
     0     -9.5240782     23  1.200                                             
     1    -11.1113914     23  1.520                                             
     1      1.3605826     23  1.520                                             
     2    -10.8846608      7  1.500                                             
  local pseudopotential read in
  partial core-charges read in
  partial kinetic energy density read in
  atomic valenz-charges read in
  non local Contribution for L=           0  read in
    real space projection operators read in
  non local Contribution for L=           0  read in
    real space projection operators read in
  non local Contribution for L=           1  read in
    real space projection operators read in
  non local Contribution for L=           1  read in
    real space projection operators read in
    PAW grid and wavefunctions read in
 
   number of l-projection  operators is LMAX  =           4
   number of lm-projection operators is LMMAX =           8
 
 Optimization of the real space projectors (new method)

 maximal supplied QI-value         = 15.12
 optimisation between [QCUT,QGAM] = [ 13.45, 27.06] = [ 50.69,205.06] Ry 
 Optimized for a Real-space Cutoff    1.49 Angstroem

   l    n(q)    QCUT    max X(q) W(low)/X(q) W(high)/X(q)  e(spline) 
   1     12    13.455     4.841    0.13E-05    0.83E-06    0.56E-07
   1     12    13.455     5.701    0.32E-04    0.25E-04    0.17E-06
   2     11    13.455     4.569    0.64E-05    0.34E-05    0.50E-07
   2     11    13.455    32.276    0.49E-04    0.38E-04    0.46E-06
   0     12    13.455    30.046    0.17E-04    0.41E-05    0.51E-07
   0     12    13.455    45.433    0.12E-04    0.27E-04    0.38E-06
 Optimization of the real space projectors (new method)

 maximal supplied QI-value         = 24.76
 optimisation between [QCUT,QGAM] = [ 13.37, 26.98] = [ 50.04,203.89] Ry 
 Optimized for a Real-space Cutoff    1.17 Angstroem

   l    n(q)    QCUT    max X(q) W(low)/X(q) W(high)/X(q)  e(spline) 
   0      9    13.368     4.192    0.20E-04    0.58E-05    0.56E-07
   0      9    13.368     8.473    0.60E-04    0.52E-04    0.21E-06
   1      9    13.368     2.474    0.22E-04    0.17E-04    0.28E-07
   1      9    13.368     3.912    0.94E-04    0.97E-04    0.20E-06
 Optimization of the real space projectors (new method)

 maximal supplied QI-value         = 24.76
 optimisation between [QCUT,QGAM] = [ 13.37, 26.98] = [ 50.04,203.89] Ry 
 Optimized for a Real-space Cutoff    1.17 Angstroem

   l    n(q)    QCUT    max X(q) W(low)/X(q) W(high)/X(q)  e(spline) 
   0      9    13.368    14.049    0.39E-04    0.34E-04    0.16E-06
   0      9    13.368     8.945    0.54E-04    0.47E-04    0.20E-06
   1      9    13.368     7.086    0.99E-04    0.10E-03    0.23E-06
   1      9    13.368     6.747    0.86E-04    0.89E-04    0.21E-06

 ----------------------------------------------------------------------------- 
|                                                                             |
|  ADVICE TO THIS USER RUNNING 'VASP/VAMP'   (HEAR YOUR MASTER'S VOICE ...):  |
|                                                                             |
|      You enforced a specific xc-type in the INCAR file,                     |
|      a different type was found on the POTCAR file                          |
|          I HOPE YOU KNOW, WHAT YOU ARE  DOING                               |
|                                                                             |
 ----------------------------------------------------------------------------- 

 PAW_PBE Ti_pv 07Sep2000                :
 energy of atom  1       EATOM=-1042.3781
 kinetic energy error for atom=    0.0006 (will be added to EATOM!!)
 PAW_PBE O 08Apr2002                    :
 energy of atom  2       EATOM= -432.3788
 kinetic energy error for atom=    0.0091 (will be added to EATOM!!)
  PAW_PBE F 08Apr2002                   :
 energy of atom  3       EATOM= -659.6475
 kinetic energy error for atom=    0.0140 (will be added to EATOM!!)
 
 
 POSCAR: TiOF2 2x2x2 config 2152                 
  positions in direct lattice
  velocities in cartesian coordinates
 exchange correlation table for  LEXCH =       14
   RHO(1)=    0.500       N(1)  =     2000
   RHO(2)=  100.500       N(2)  =     4000

 VTST: version 3.1, (03/28/14)

 CHAIN: initializing optimizer
 
 OPT: Using VASP QUASI-newton optimizer
 CHAIN: Read ICHAIN            0
 
 POSCAR: TiOF2 2x2x2 config 2152                 
  positions in direct lattice
  velocities in cartesian coordinates
 


--------------------------------------------------------------------------------------------------------


 ion  position               nearest neighbor table
   1  0.000  0.001  0.001-  28 1.92  29 1.92  23 1.96  25 1.96  17 2.02  20 2.02
   2  0.998  0.980  0.500-  11 1.73  21 1.93  18 1.93  28 1.97  29 1.97  24 2.02
   3  0.001  0.500  0.978-  14 1.74  23 1.93  25 1.94  22 1.94  19 1.95  30 2.03
   4  0.016  0.501  0.499-   9 1.78  14 1.99  11 2.00  30 2.01  24 2.03  10 2.09
   5  0.500  0.002  0.002-  31 1.86  32 1.86  26 1.87  27 1.87  20 1.90  17 1.90
   6  0.497  0.996  0.503-  13 1.78  12 1.90  18 2.00  21 2.01  32 2.02  31 2.02
   7  0.503  0.502  0.995-  16 1.78  15 1.92  22 1.98  19 2.00  27 2.01  26 2.02
   8  0.499  0.489  0.493-  12 1.93  15 1.94  10 1.97   9 2.02  16 2.11  13 2.15
   9  0.243  0.498  0.497-   4 1.78   8 2.02
  10  0.750  0.497  0.493-   8 1.97   4 2.09
  11  1.000  0.757  0.497-   2 1.73   4 2.00
  12  0.497  0.240  0.503-   6 1.90   8 1.93
  13  0.496  0.766  0.502-   6 1.78   8 2.15
  14  0.997  0.498  0.754-   3 1.74   4 1.99
  15  0.508  0.501  0.243-   7 1.92   8 1.94
  16  0.503  0.500  0.765-   7 1.78   8 2.11
  17  0.258  0.001  0.000-   5 1.90   1 2.02
  18  0.242  0.008  0.502-   2 1.93   6 2.00
  19  0.248  0.501  0.007-   3 1.95   7 2.00
  20  0.742  0.001  0.001-   5 1.90   1 2.02
  21  0.753  0.005  0.502-   2 1.93   6 2.01
  22  0.755  0.502  0.005-   3 1.94   7 1.98
  23  0.002  0.253  0.005-   3 1.93   1 1.96
  24  0.998  0.240  0.498-   2 2.02   4 2.03
  25  0.002  0.748  0.004-   3 1.94   1 1.96
  26  0.499  0.242  0.003-   5 1.87   7 2.02
  27  0.499  0.761  0.002-   5 1.87   7 2.01
  28  0.998  0.005  0.248-   1 1.92   2 1.97
  29  0.999  0.004  0.753-   1 1.92   2 1.97
  30  0.997  0.499  0.240-   4 2.01   3 2.03
  31  0.500  0.002  0.242-   5 1.86   6 2.02
  32  0.499  0.001  0.762-   5 1.86   6 2.02
 

IMPORTANT INFORMATION: All symmetrisations will be switched off!
NOSYMM: (Re-)initialisation of all symmetry stuff for point group C_1.

 
 
 KPOINTS: Title                                   

Automatic generation of k-mesh.
Space group operators:
 irot       det(A)        alpha          n_x          n_y          n_z        tau_x        tau_y        tau_z
    1     1.000000     0.000002     1.000000     0.000000     0.000000     0.000000     0.000000     0.000000
 
 Subroutine IBZKPT returns following result:
 ===========================================
 
 Found      4 irreducible k-points:
 
 Following reciprocal coordinates:
            Coordinates               Weight
  0.250000  0.250000  0.250000      2.000000
 -0.250000  0.250000  0.250000      2.000000
  0.250000 -0.250000  0.250000      2.000000
 -0.250000 -0.250000  0.250000      2.000000
 
 Following cartesian coordinates:
            Coordinates               Weight
  0.031997  0.032250  0.032399      2.000000
 -0.031728  0.032237  0.032147      2.000000
  0.031985 -0.032151  0.032313      2.000000
 -0.031741 -0.032164  0.032061      2.000000
 


--------------------------------------------------------------------------------------------------------




 Dimension of arrays:
   k-points           NKPTS =      4   k-points in BZ     NKDIM =      4   number of bands    NBANDS=    160
   number of dos      NEDOS =   3001   number of ions     NIONS =     32
   non local maximal  LDIM  =      6   non local SUM 2l+1 LMDIM =     18
   total plane-waves  NPLWV = 343000
   max r-space proj   IRMAX =  10065   max aug-charges    IRDMAX= 225632
   dimension x,y,z NGX =    70 NGY =   70 NGZ =   70
   dimension x,y,z NGXF=   140 NGYF=  140 NGZF=  140
   support grid    NGXF=   280 NGYF=  280 NGZF=  280
   ions per type =               8   8  16
   NGX,Y,Z   is equivalent  to a cutoff of  14.83, 14.99, 15.00 a.u.
   NGXF,Y,Z  is equivalent  to a cutoff of  29.66, 29.98, 30.00 a.u.

 SYSTEM =  LTO                                     
 POSCAR =  TiOF2 2x2x2 config 2152                 

 Startparameter for this run:
   NWRITE =      2    write-flag & timer
   PREC   = accura    normal or accurate (medium, high low for compatibility)
   ISTART =      1    job   : 0-new  1-cont  2-samecut
   ICHARG =      0    charge: 1-file 2-atom 10-const
   ISPIN  =      2    spin polarized calculation?
   LNONCOLLINEAR =      F non collinear calculations
   LSORBIT =      F    spin-orbit coupling
   INIWAV =      1    electr: 0-lowe 1-rand  2-diag
   LASPH  =      T    aspherical Exc in radial PAW
   METAGGA=      F    non-selfconsistent MetaGGA calc.

 Electronic Relaxation 1
   ENCUT  =  700.0 eV  51.45 Ry    7.17 a.u.  16.93 16.75 16.73*2*pi/ulx,y,z
   ENINI  =  700.0     initial cutoff
   ENAUG  =  613.6 eV  augmentation charge cutoff
   NELM   =     60;   NELMIN=  2; NELMDL=  0     # of ELM steps 
   EDIFF  = 0.1E-05   stopping-criterion for ELM
   LREAL  =      T    real-space projection
   NLSPLINE    = F    spline interpolate recip. space projectors
   LCOMPAT=      F    compatible to vasp.4.4
   GGA_COMPAT  = T    GGA compatible to vasp.4.4-vasp.4.6
   LMAXPAW     = -100 max onsite density
   LMAXMIX     =    4 max onsite mixed and CHGCAR
   VOSKOWN=      0    Vosko Wilk Nusair interpolation
   ROPT   =   -0.00010  -0.00010  -0.00010
 Ionic relaxation
   EDIFFG = -.1E-01   stopping-criterion for IOM
   NSW    =    100    number of steps for IOM
   NBLOCK =      1;   KBLOCK =    100    inner block; outer block 
   IBRION =      1    ionic relax: 0-MD 1-quasi-New 2-CG
   NFREE  =      0    steps in history (QN), initial steepest desc. (CG)
   ISIF   =      3    stress and relaxation
   IWAVPR =     11    prediction:  0-non 1-charg 2-wave 3-comb
   ISYM   =      0    0-nonsym 1-usesym 2-fastsym
   LCORR  =      T    Harris-Foulkes like correction to forces

   POTIM  = 0.5000    time-step for ionic-motion
   TEIN   =    0.0    initial temperature
   TEBEG  =    0.0;   TEEND  =   0.0 temperature during run
   SMASS  =  -3.00    Nose mass-parameter (am)
   estimated Nose-frequenzy (Omega)   =  0.10E-29 period in steps =****** mass=  -0.141E-26a.u.
   SCALEE = 1.0000    scale energy and forces
   NPACO  =    256;   APACO  = 16.0  distance and # of slots for P.C.
   PSTRESS=    0.0 pullay stress

  Mass of Ions in am
   POMASS =  47.88 16.00 19.00
  Ionic Valenz
   ZVAL   =  10.00  6.00  7.00
  Atomic Wigner-Seitz radii
   RWIGS  =  -1.00 -1.00 -1.00
  virtual crystal weights 
   VCA    =   1.00  1.00  1.00
   NELECT =     240.0000    total number of electrons
   NUPDOWN=      -1.0000    fix difference up-down

 DOS related values:
   EMIN   =  10.00;   EMAX   =-10.00  energy-range for DOS
   EFERMI =   0.00
   ISMEAR =     0;   SIGMA  =   0.01  broadening in eV -4-tet -1-fermi 0-gaus

 Electronic relaxation 2 (details)
   IALGO  =     38    algorithm
   LDIAG  =      T    sub-space diagonalisation (order eigenvalues)
   LSUBROT=      F    optimize rotation matrix (better conditioning)
   TURBO    =      0    0=normal 1=particle mesh
   IRESTART =      0    0=no restart 2=restart with 2 vectors
   NREBOOT  =      0    no. of reboots
   NMIN     =      0    reboot dimension
   EREF     =   0.00    reference energy to select bands
   IMIX   =      4    mixing-type and parameters
     AMIX     =   0.40;   BMIX     =  1.00
     AMIX_MAG =   1.60;   BMIX_MAG =  1.00
     AMIN     =   0.10
     WC   =   100.;   INIMIX=   1;  MIXPRE=   1;  MAXMIX= -45

 Intra band minimization:
   WEIMIN = 0.0010     energy-eigenvalue tresh-hold
   EBREAK =  0.16E-08  absolut break condition
   DEPER  =   0.30     relativ break condition  

   TIME   =   0.40     timestep for ELM

  volume/ion in A,a.u.               =      14.77        99.65
  Fermi-wavevector in a.u.,A,eV,Ry     =   1.306187  2.468335 23.213216  1.706123
  Thomas-Fermi vector in A             =   2.437005
 
 Write flags
   LWAVE        =      T    write WAVECAR
   LDOWNSAMPLE  =      F    k-point downsampling of WAVECAR
   LCHARG       =      T    write CHGCAR
   LVTOT        =      F    write LOCPOT, total local potential
   LVHAR        =      F    write LOCPOT, Hartree potential only
   LELF         =      F    write electronic localiz. function (ELF)
   LORBIT       =     11    0 simple, 1 ext, 2 COOP (PROOUT), +10 PAW based schemes


 Dipole corrections
   LMONO  =      F    monopole corrections only (constant potential shift)
   LDIPOL =      F    correct potential (dipole corrections)
   IDIPOL =      0    1-x, 2-y, 3-z, 4-all directions 
   EPSILON=  1.0000000 bulk dielectric constant

 LDA+U is selected, type is set to LDAUTYPE =  2
   angular momentum for each species LDAUL =     2   -1   -1
   U (eV)           for each species LDAUU =   4.2  0.0  0.0
   J (eV)           for each species LDAUJ =   0.0  0.0  0.0
 Exchange correlation treatment:
   GGA     =    PS    GGA type
   LEXCH   =    14    internal setting for exchange type
   VOSKOWN=      0    Vosko Wilk Nusair interpolation
   LHFCALC =     F    Hartree Fock is set to
   LHFONE  =     F    Hartree Fock one center treatment
   AEXX    =    0.0000 exact exchange contribution

 Linear response parameters
   LEPSILON=     F    determine dielectric tensor
   LRPA    =     F    only Hartree local field effects (RPA)
   LNABLA  =     F    use nabla operator in PAW spheres
   LVEL    =     F    velocity operator in full k-point grid
   LINTERFAST=   F  fast interpolation
   KINTER  =     0    interpolate to denser k-point grid
   CSHIFT  =0.1000    complex shift for real part using Kramers Kronig
   OMEGAMAX=  -1.0    maximum frequency
   DEG_THRESHOLD= 0.2000000E-02 threshold for treating states as degnerate
   RTIME   =   -0.100 relaxation time in fs
  (WPLASMAI=    0.000 imaginary part of plasma frequency in eV, 0.658/RTIME)
   DFIELD  = 0.0000000 0.0000000 0.0000000 field for delta impulse in time
 
 Orbital magnetization related:
   ORBITALMAG=     F  switch on orbital magnetization
   LCHIMAG   =     F  perturbation theory with respect to B field
   DQ        =  0.001000  dq finite difference perturbation B field
   LLRAUG    =     F  two centre corrections for induced B field



--------------------------------------------------------------------------------------------------------


 quasi-Newton-method for relaxation of ions
 charge density and potential will be updated during run
 spin polarized calculation
 Variant of blocked Davidson
 Davidson routine will perform the subspace rotation
 perform sub-space diagonalisation
    after iterative eigenvector-optimisation
 modified Broyden-mixing scheme, WC =      100.0
 initial mixing is a Kerker type mixing with AMIX =  0.4000 and BMIX =      1.0000
 Hartree-type preconditioning will be used
 using additional bands           40
 real space projection scheme for non local part
 use partial core corrections
 calculate Harris-corrections to forces 
   (improved forces if not selfconsistent)
 use gradient corrections 
 use of overlap-Matrix (Vanderbilt PP)
 Gauss-broadening in eV      SIGMA  =   0.01


--------------------------------------------------------------------------------------------------------


  energy-cutoff  :      700.00
  volume of cell :      472.52
      direct lattice vectors                 reciprocal lattice vectors
     7.846258603 -0.001475238 -0.031204820     0.127451291  0.000025611  0.000504872
    -0.001518998  7.763852756 -0.010381888     0.000024899  0.128802265  0.000171390
    -0.030725265 -0.010315715  7.756894101     0.000512751  0.000172493  0.128919838

  length of vectors
     7.846320792  7.763859846  7.756961812     0.127452294  0.128802381  0.128920973


 
 old parameters found on file WAVECAR:
  energy-cutoff  :      700.00
  volume of cell :      438.28
      direct lattice vectors                 reciprocal lattice vectors
     7.596000000  0.000000000  0.000000000     0.131648236  0.000000000  0.000000000
     0.000000000  7.596000000  0.000000000     0.000000000  0.131648236  0.000000000
     0.000000000  0.000000000  7.596000000     0.000000000  0.000000000  0.131648236

  length of vectors

 
 k-points in units of 2pi/SCALE and weight: Title                                   
   0.03199724  0.03225009  0.03239903       0.250
  -0.03172841  0.03223729  0.03214659       0.250
   0.03198479 -0.03215104  0.03231333       0.250
  -0.03174086 -0.03216385  0.03206089       0.250
 
 k-points in reciprocal lattice and weights: Title                                   
   0.25000000  0.25000000  0.25000000       0.250
  -0.25000000  0.25000000  0.25000000       0.250
   0.25000000 -0.25000000  0.25000000       0.250
  -0.25000000 -0.25000000  0.25000000       0.250
 
 position of ions in fractional coordinates (direct lattice) 
   0.00008577  0.00103408  0.00083855
   0.99751031  0.97977908  0.50007202
   0.00088754  0.50034754  0.97788969
   0.01587131  0.50064470  0.49866071
   0.50000382  0.00155886  0.00236247
   0.49741712  0.99550778  0.50253756
   0.50252822  0.50164910  0.99497850
   0.49917288  0.48897202  0.49312278
   0.24257636  0.49782480  0.49706758
   0.75004504  0.49693513  0.49273041
   0.99963091  0.75748897  0.49700129
   0.49715276  0.24019071  0.50338776
   0.49573691  0.76581338  0.50184654
   0.99672769  0.49771439  0.75419392
   0.50841814  0.50117429  0.24309147
   0.50317541  0.49997700  0.76525531
   0.25782487  0.00052970  0.00047190
   0.24237021  0.00755403  0.50191455
   0.24840436  0.50142591  0.00696042
   0.74205403  0.00052211  0.00113091
   0.75279499  0.00538991  0.50177560
   0.75511608  0.50182198  0.00520900
   0.00184378  0.25327793  0.00481247
   0.99781804  0.24036242  0.49783037
   0.00193241  0.74838860  0.00395699
   0.49941031  0.24211060  0.00272330
   0.49945694  0.76067701  0.00223832
   0.99818663  0.00473050  0.24800448
   0.99862035  0.00389893  0.75323039
   0.99730710  0.49908096  0.24016667
   0.50043947  0.00211833  0.24204057
   0.49948027  0.00149926  0.76249747
 
 position of ions in cartesian coordinates  (Angst):
   0.00064561  0.00801970  0.00649111
   7.80987076  7.60023038  3.83770659
  -0.02384208  3.87453569  7.58016453
   0.10844841  3.88176431  3.86236539
   3.92308431  0.01134077  0.00270674
   3.88591055  7.72305796  3.87227360
   3.91163341  3.88372446  7.69705352
   3.90074540  3.79048346  3.80444813
   1.88728810  3.85955296  3.84296267
   5.86915321  3.85194182  3.79349346
   7.82694148  5.87443118  3.81612893
   3.88495755  1.85887908  3.88671838
   3.87309737  5.93975409  3.86935052
   7.79665436  3.85493076  5.81393246
   3.98094984  3.88778572  1.86456654
   3.92377227  3.87311133  5.91511222
   2.02294527  0.00372731 -0.00439036
   1.88626641  0.05311318  3.88565650
   1.94806932  3.89255866  0.04103405
   5.82231225  0.00294723 -0.01438877
   5.89119878  0.03555972  3.86867341
   5.92391376  3.89490424  0.01163255
   0.01393418  1.96636021  0.03464280
   7.81347730  1.85953092  3.82798530
   0.01390381  5.81033523  0.02286398
   3.91805099  1.87894620  0.00302675
   3.91764411  5.90502442 -0.00612028
   7.82440324  0.03269601  1.89254713
   7.81228435  0.02102739  5.81152616
   7.81699216  3.87084231  1.82664527
   3.91913748  0.01321129  1.86184495
   3.89562112  0.00303745  5.89901041
 


--------------------------------------------------------------------------------------------------------


 k-point  1 :   0.2500 0.2500 0.2500  plane waves:   19863
 k-point  2 :  -0.2500 0.2500 0.2500  plane waves:   19876
 k-point  3 :   0.2500-0.2500 0.2500  plane waves:   19870
 k-point  4 :  -0.2500-0.2500 0.2500  plane waves:   19878

 maximum and minimum number of plane-waves per node :      2515     2456

 maximum number of plane-waves:     19878
 maximum index in each direction: 
   IXMAX=   17   IYMAX=   16   IZMAX=   16
   IXMIN=  -17   IYMIN=  -16   IZMIN=  -16


 real space projection operators:
  total allocation   :      18120.20 KBytes
  max/ min on nodes  :       2411.47       1882.38


 parallel 3D FFT for wavefunctions:
    minimum data exchange during FFTs selected (reduces bandwidth)
 parallel 3D FFT for charge:
    minimum data exchange during FFTs selected (reduces bandwidth)


 total amount of memory used by VASP MPI-rank0    62217. kBytes
=======================================================================

   base      :      30000. kBytes
   nonlr-proj:       8395. kBytes
   fftplans  :       8423. kBytes
   grid      :       8783. kBytes
   one-center:        124. kBytes
   wavefun   :       6492. kBytes
 
     INWAV:  cpu time    3.7304: real time    4.3298
 Broyden mixing: mesh for mixing (old mesh)
   NGX = 33   NGY = 33   NGZ = 33
  (NGX  =140   NGY  =140   NGZ  =140)
  gives a total of  35937 points

 charge density for first step will be calculated from the start-wavefunctions


--------------------------------------------------------------------------------------------------------


 Maximum index for non-local projection operator         1353
 Maximum index for augmentation-charges         7102 (set IRDMAX)


--------------------------------------------------------------------------------------------------------


 initial charge from wavefunction
 First call to EWALD:  gamma=   0.228
 Maximum number of real-space cells 3x 3x 3
 Maximum number of reciprocal cells 3x 3x 3

    FEWALD:  cpu time    0.0040: real time    0.0032


--------------------------------------- Iteration      1(   1)  ---------------------------------------


    POTLOK:  cpu time    0.1410: real time    0.5456
    SETDIJ:  cpu time    0.8379: real time    0.8366
     EDDAV:  cpu time    3.4805: real time    3.4806
       DOS:  cpu time    0.0000: real time    0.0008
    CHARGE:  cpu time    0.3819: real time    0.3794
    MIXING:  cpu time    0.0020: real time    0.0022
    --------------------------------------------
      LOOP:  cpu time    4.8433: real time    5.2451

 eigenvalue-minimisations  :  2560
 total energy-change (2. order) :-0.2078415E+03  (-0.9723473E-01)
 number of electron     240.0000004 magnetization       2.0000000
 augmentation part       62.0689601 magnetization       0.7683267

 Broyden mixing:
  rms(total) = 0.10253E-01    rms(broyden)= 0.96921E-02
  rms(prec ) = 0.10657E-01
  weight for this iteration     100.00

 Free energy of the ion-electron system (eV)
  ---------------------------------------------------
  alpha Z        PSCENC =       741.06101011
  Ewald energy   TEWEN  =    -12595.97556020
  -Hartree energ DENC   =     -8398.74648102
  -exchange      EXHF   =         0.00000000
  -V(xc)+E(xc)   XCENC  =      1119.20922792
  PAW double counting   =     17995.73649357   -18115.26029807
  entropy T*S    EENTRO =        -0.00000000
  eigenvalues    EBANDS =     -3256.21912377
  atomic energy  EATOM  =     22302.35321627
  Solvation  Ediel_sol  =         0.00000000
  ---------------------------------------------------
  free energy    TOTEN  =      -207.84151519 eV

  energy without entropy =     -207.84151519  energy(sigma->0) =     -207.84151519


--------------------------------------------------------------------------------------------------------




--------------------------------------- Iteration      1(   2)  ---------------------------------------


    POTLOK:  cpu time    0.1430: real time    0.1619
    SETDIJ:  cpu time    0.8469: real time    0.8437
     EDDAV:  cpu time    4.2903: real time    4.2878
       DOS:  cpu time    0.0010: real time    0.0008
    CHARGE:  cpu time    0.4219: real time    0.4189
    MIXING:  cpu time    0.0120: real time    0.0122
    --------------------------------------------
      LOOP:  cpu time    5.7151: real time    5.7252

 eigenvalue-minimisations  :  3232
 total energy-change (2. order) :-0.1377566E-03  (-0.1456856E-04)
 number of electron     240.0000004 magnetization       2.0000000
 augmentation part       62.0700583 magnetization       0.7683093

 Broyden mixing:
  rms(total) = 0.61460E-02    rms(broyden)= 0.61092E-02
  rms(prec ) = 0.67606E-02
  weight for this iteration     100.00

 eigenvalues of (default mixing * dielectric matrix)
  average eigenvalue GAMMA=   1.2615
  1.2615

 Free energy of the ion-electron system (eV)
  ---------------------------------------------------
  alpha Z        PSCENC =       741.06101011
  Ewald energy   TEWEN  =    -12595.97556020
  -Hartree energ DENC   =     -8398.66948946
  -exchange      EXHF   =         0.00000000
  -V(xc)+E(xc)   XCENC  =      1119.20473528
  PAW double counting   =     17996.80020947   -18116.30227042
  entropy T*S    EENTRO =        -0.00000000
  eigenvalues    EBANDS =     -3256.31350401
  atomic energy  EATOM  =     22302.35321627
  Solvation  Ediel_sol  =         0.00000000
  ---------------------------------------------------
  free energy    TOTEN  =      -207.84165295 eV

  energy without entropy =     -207.84165295  energy(sigma->0) =     -207.84165295


--------------------------------------------------------------------------------------------------------




--------------------------------------- Iteration      1(   3)  ---------------------------------------


    POTLOK:  cpu time    0.1480: real time    0.1736
    SETDIJ:  cpu time    0.8379: real time    0.8363
     EDDAV:  cpu time    4.2074: real time    4.2109
       DOS:  cpu time    0.0010: real time    0.0009
    CHARGE:  cpu time    0.3779: real time    0.3769
    MIXING:  cpu time    0.0020: real time    0.0024
    --------------------------------------------
      LOOP:  cpu time    5.5742: real time    5.6011

 eigenvalue-minimisations  :  3136
 total energy-change (2. order) :-0.1174989E-03  (-0.6232518E-05)
 number of electron     240.0000004 magnetization       2.0000000
 augmentation part       62.0705265 magnetization       0.7682666

 Broyden mixing:
  rms(total) = 0.40150E-02    rms(broyden)= 0.40118E-02
  rms(prec ) = 0.48777E-02
  weight for this iteration     100.00

 eigenvalues of (default mixing * dielectric matrix)
  average eigenvalue GAMMA=   1.4581
  2.3432  0.5730

 Free energy of the ion-electron system (eV)
  ---------------------------------------------------
  alpha Z        PSCENC =       741.06101011
  Ewald energy   TEWEN  =    -12595.97556020
  -Hartree energ DENC   =     -8398.70762646
  -exchange      EXHF   =         0.00000000
  -V(xc)+E(xc)   XCENC  =      1119.20762312
  PAW double counting   =     17997.62487312   -18117.11525385
  entropy T*S    EENTRO =        -0.00000000
  eigenvalues    EBANDS =     -3256.29005255
  atomic energy  EATOM  =     22302.35321627
  Solvation  Ediel_sol  =         0.00000000
  ---------------------------------------------------
  free energy    TOTEN  =      -207.84177045 eV

  energy without entropy =     -207.84177045  energy(sigma->0) =     -207.84177045


--------------------------------------------------------------------------------------------------------




--------------------------------------- Iteration      1(   4)  ---------------------------------------


    POTLOK:  cpu time    0.2000: real time    0.2289
    SETDIJ:  cpu time    0.8409: real time    0.8391
     EDDAV:  cpu time    3.9624: real time    3.9595
       DOS:  cpu time    0.0010: real time    0.0009
    CHARGE:  cpu time    0.3859: real time    0.3838
    MIXING:  cpu time    0.0020: real time    0.0024
    --------------------------------------------
      LOOP:  cpu time    5.3922: real time    5.4146

 eigenvalue-minimisations  :  2976
 total energy-change (2. order) :-0.4733182E-04  (-0.4619515E-05)
 number of electron     240.0000004 magnetization       2.0000000
 augmentation part       62.0704230 magnetization       0.7682721

 Broyden mixing:
  rms(total) = 0.14478E-02    rms(broyden)= 0.14466E-02
  rms(prec ) = 0.16661E-02
  weight for this iteration     100.00

 eigenvalues of (default mixing * dielectric matrix)
  average eigenvalue GAMMA=   1.1887
  2.2039  0.9067  0.4557

 Free energy of the ion-electron system (eV)
  ---------------------------------------------------
  alpha Z        PSCENC =       741.06101011
  Ewald energy   TEWEN  =    -12595.97556020
  -Hartree energ DENC   =     -8398.76068898
  -exchange      EXHF   =         0.00000000
  -V(xc)+E(xc)   XCENC  =      1119.21084081
  PAW double counting   =     17998.32209487   -18117.80172177
  entropy T*S    EENTRO =        -0.00000000
  eigenvalues    EBANDS =     -3256.25100889
  atomic energy  EATOM  =     22302.35321627
  Solvation  Ediel_sol  =         0.00000000
  ---------------------------------------------------
  free energy    TOTEN  =      -207.84181778 eV

  energy without entropy =     -207.84181778  energy(sigma->0) =     -207.84181778


--------------------------------------------------------------------------------------------------------




--------------------------------------- Iteration      1(   5)  ---------------------------------------


    POTLOK:  cpu time    0.1420: real time    0.1634
    SETDIJ:  cpu time    0.8279: real time    0.8357
     EDDAV:  cpu time    3.0545: real time    3.0600
       DOS:  cpu time    0.0010: real time    0.0008
    CHARGE:  cpu time    0.3669: real time    0.3767
    MIXING:  cpu time    0.0020: real time    0.0022
    --------------------------------------------
      LOOP:  cpu time    4.3943: real time    4.4388

 eigenvalue-minimisations  :  2136
 total energy-change (2. order) :-0.9170362E-05  (-0.6764190E-05)
 number of electron     240.0000004 magnetization       2.0000000
 augmentation part       62.0703615 magnetization       0.7682815

 Broyden mixing:
  rms(total) = 0.36403E-02    rms(broyden)= 0.36380E-02
  rms(prec ) = 0.43361E-02
  weight for this iteration     100.00

 eigenvalues of (default mixing * dielectric matrix)
  average eigenvalue GAMMA=   0.9270
  2.2177  0.9450  0.4757  0.0696

 Free energy of the ion-electron system (eV)
  ---------------------------------------------------
  alpha Z        PSCENC =       741.06101011
  Ewald energy   TEWEN  =    -12595.97556020
  -Hartree energ DENC   =     -8398.77356080
  -exchange      EXHF   =         0.00000000
  -V(xc)+E(xc)   XCENC  =      1119.21154269
  PAW double counting   =     17998.28316518   -18117.76239019
  entropy T*S    EENTRO =        -0.00000000
  eigenvalues    EBANDS =     -3256.23925001
  atomic energy  EATOM  =     22302.35321627
  Solvation  Ediel_sol  =         0.00000000
  ---------------------------------------------------
  free energy    TOTEN  =      -207.84182695 eV

  energy without entropy =     -207.84182695  energy(sigma->0) =     -207.84182695


--------------------------------------------------------------------------------------------------------




--------------------------------------- Iteration      1(   6)  ---------------------------------------


    POTLOK:  cpu time    0.1590: real time    0.3349
    SETDIJ:  cpu time    0.8379: real time    0.8366
     EDDAV:  cpu time    2.6456: real time    2.6438
       DOS:  cpu time    0.0010: real time    0.0008
    --------------------------------------------
      LOOP:  cpu time    3.6434: real time    3.8161

 eigenvalue-minimisations  :  1704
 total energy-change (2. order) : 0.4949252E-06  (-0.1412209E-06)
 number of electron     240.0000004 magnetization       2.0000000
 augmentation part       62.0703615 magnetization       0.7682815

 Free energy of the ion-electron system (eV)
  ---------------------------------------------------
  alpha Z        PSCENC =       741.06101011
  Ewald energy   TEWEN  =    -12595.97556020
  -Hartree energ DENC   =     -8398.77306138
  -exchange      EXHF   =         0.00000000
  -V(xc)+E(xc)   XCENC  =      1119.21151340
  PAW double counting   =     17998.27874593   -18117.75803744
  entropy T*S    EENTRO =        -0.00000000
  eigenvalues    EBANDS =     -3256.23965314
  atomic energy  EATOM  =     22302.35321627
  Solvation  Ediel_sol  =         0.00000000
  ---------------------------------------------------
  free energy    TOTEN  =      -207.84182646 eV

  energy without entropy =     -207.84182646  energy(sigma->0) =     -207.84182646


--------------------------------------------------------------------------------------------------------




 average (electrostatic) potential at core
  the test charge radii are     1.0397  0.7215  0.7167
  (the norm of the test charge is              1.0000)
       1 -58.4198       2 -59.0201       3 -59.0073       4 -57.8918       5 -60.8694
       6 -58.0796       7 -58.3719       8 -57.4350       9 -72.9913      10 -73.4396
      11 -74.1759      12 -72.6989      13 -72.8518      14 -74.1598      15 -73.0964
      16 -73.1876      17 -80.5125      18 -79.3126      19 -79.3707      20 -80.5130
      21 -79.3303      22 -79.3872      23 -79.8196      24 -78.3807      25 -79.8353
      26 -80.3550      27 -80.3625      28 -80.1998      29 -80.2204      30 -78.4134
      31 -80.3655      32 -80.3673
 
 
 
 E-fermi :   0.3923     XC(G=0):  -8.8686     alpha+bet : -7.4781


 spin component 1

 k-point     1 :       0.2500    0.2500    0.2500
  band No.  band energies     occupation 
      1     -36.8422      1.00000
      2     -36.8024      1.00000
      3     -36.7859      1.00000
      4     -35.3687      1.00000
      5     -35.1358      1.00000
      6     -35.1217      1.00000
      7     -35.0417      1.00000
      8     -35.0305      1.00000
      9     -34.8091      1.00000
     10     -34.8089      1.00000
     11     -34.7817      1.00000
     12     -34.7285      1.00000
     13     -34.5234      1.00000
     14     -34.4904      1.00000
     15     -34.2827      1.00000
     16     -34.2095      1.00000
     17     -33.9219      1.00000
     18     -33.8646      1.00000
     19     -33.8368      1.00000
     20     -33.6170      1.00000
     21     -33.5812      1.00000
     22     -33.2118      1.00000
     23     -33.1876      1.00000
     24     -33.1636      1.00000
     25     -24.4568      1.00000
     26     -24.1917      1.00000
     27     -24.0896      1.00000
     28     -24.0503      1.00000
     29     -23.9362      1.00000
     30     -23.7517      1.00000
     31     -23.7383      1.00000
     32     -23.6824      1.00000
     33     -23.6387      1.00000
     34     -23.3064      1.00000
     35     -23.1552      1.00000
     36     -23.1129      1.00000
     37     -22.8587      1.00000
     38     -22.7924      1.00000
     39     -22.1030      1.00000
     40     -22.0157      1.00000
     41     -16.6278      1.00000
     42     -16.4433      1.00000
     43     -16.1717      1.00000
     44     -15.8665      1.00000
     45     -15.5264      1.00000
     46     -15.3199      1.00000
     47     -15.2648      1.00000
     48     -14.8838      1.00000
     49      -7.8576      1.00000
     50      -7.7664      1.00000
     51      -7.6890      1.00000
     52      -7.4852      1.00000
     53      -7.1069      1.00000
     54      -6.7148      1.00000
     55      -6.6683      1.00000
     56      -6.6289      1.00000
     57      -6.5708      1.00000
     58      -6.5404      1.00000
     59      -6.4944      1.00000
     60      -6.4838      1.00000
     61      -6.3442      1.00000
     62      -6.3240      1.00000
     63      -6.0971      1.00000
     64      -5.9542      1.00000
     65      -5.8530      1.00000
     66      -5.8506      1.00000
     67      -5.6301      1.00000
     68      -5.6146      1.00000
     69      -5.5642      1.00000
     70      -5.5481      1.00000
     71      -5.4779      1.00000
     72      -5.3808      1.00000
     73      -5.1573      1.00000
     74      -5.1396      1.00000
     75      -5.0928      1.00000
     76      -5.0525      1.00000
     77      -4.9862      1.00000
     78      -4.9244      1.00000
     79      -4.8322      1.00000
     80      -4.8209      1.00000
     81      -4.7657      1.00000
     82      -4.7533      1.00000
     83      -4.6708      1.00000
     84      -4.5501      1.00000
     85      -4.5309      1.00000
     86      -4.4394      1.00000
     87      -4.2365      1.00000
     88      -4.1961      1.00000
     89      -4.1769      1.00000
     90      -4.1431      1.00000
     91      -3.9801      1.00000
     92      -3.8893      1.00000
     93      -3.6981      1.00000
     94      -3.6466      1.00000
     95      -3.5160      1.00000
     96      -3.4375      1.00000
     97      -3.3601      1.00000
     98      -3.2839      1.00000
     99      -3.2286      1.00000
    100      -3.1990      1.00000
    101      -2.9066      1.00000
    102      -2.5145      1.00000
    103      -2.3500      1.00000
    104      -2.3221      1.00000
    105      -1.9014      1.00000
    106      -1.8005      1.00000
    107      -1.7490      1.00000
    108      -1.6967      1.00000
    109      -1.6360      1.00000
    110      -1.5602      1.00000
    111      -1.4193      1.00000
    112      -1.0032      1.00000
    113      -0.8659      1.00000
    114      -0.8191      1.00000
    115      -0.8072      1.00000
    116      -0.6882      1.00000
    117      -0.5675      1.00000
    118      -0.4705      1.00000
    119      -0.2959      1.00000
    120      -0.0214      1.00000
    121       0.0680      1.00000
    122       1.1112      0.00000
    123       1.1173      0.00000
    124       1.2572      0.00000
    125       2.1886      0.00000
    126       2.2270      0.00000
    127       2.4336      0.00000
    128       2.5748      0.00000
    129       2.6596      0.00000
    130       2.8014      0.00000
    131       2.8147      0.00000
    132       2.8567      0.00000
    133       2.9157      0.00000
    134       3.0207      0.00000
    135       3.0660      0.00000
    136       3.2287      0.00000
    137       3.2971      0.00000
    138       3.4042      0.00000
    139       3.5074      0.00000
    140       3.6763      0.00000
    141       3.7399      0.00000
    142       3.9000      0.00000
    143       3.9758      0.00000
    144       4.0254      0.00000
    145       4.1085      0.00000
    146       4.1675      0.00000
    147       4.2386      0.00000
    148       4.5302      0.00000
    149       4.6512      0.00000
    150       4.8306      0.00000
    151       4.8710      0.00000
    152       4.9295      0.00000
    153       5.0393      0.00000
    154       5.1275      0.00000
    155       5.3192      0.00000
    156       5.4623      0.00000
    157       5.5712      0.00000
    158       6.1815      0.00000
    159       6.5412      0.00000
    160       6.9144      0.00000

 k-point     2 :      -0.2500    0.2500    0.2500
  band No.  band energies     occupation 
      1     -36.8422      1.00000
      2     -36.8024      1.00000
      3     -36.7859      1.00000
      4     -35.3687      1.00000
      5     -35.1358      1.00000
      6     -35.1217      1.00000
      7     -35.0417      1.00000
      8     -35.0305      1.00000
      9     -34.8091      1.00000
     10     -34.8089      1.00000
     11     -34.7817      1.00000
     12     -34.7285      1.00000
     13     -34.5234      1.00000
     14     -34.4904      1.00000
     15     -34.2827      1.00000
     16     -34.2095      1.00000
     17     -33.9219      1.00000
     18     -33.8646      1.00000
     19     -33.8368      1.00000
     20     -33.6170      1.00000
     21     -33.5812      1.00000
     22     -33.2118      1.00000
     23     -33.1876      1.00000
     24     -33.1636      1.00000
     25     -24.4569      1.00000
     26     -24.1915      1.00000
     27     -24.0897      1.00000
     28     -24.0491      1.00000
     29     -23.9377      1.00000
     30     -23.7516      1.00000
     31     -23.7383      1.00000
     32     -23.6819      1.00000
     33     -23.6388      1.00000
     34     -23.3064      1.00000
     35     -23.1552      1.00000
     36     -23.1130      1.00000
     37     -22.8587      1.00000
     38     -22.7923      1.00000
     39     -22.1030      1.00000
     40     -22.0157      1.00000
     41     -16.6279      1.00000
     42     -16.4433      1.00000
     43     -16.1728      1.00000
     44     -15.8624      1.00000
     45     -15.5293      1.00000
     46     -15.3289      1.00000
     47     -15.2557      1.00000
     48     -14.8837      1.00000
     49      -7.8583      1.00000
     50      -7.7666      1.00000
     51      -7.6894      1.00000
     52      -7.4839      1.00000
     53      -7.1072      1.00000
     54      -6.7165      1.00000
     55      -6.6684      1.00000
     56      -6.6314      1.00000
     57      -6.5712      1.00000
     58      -6.5374      1.00000
     59      -6.4940      1.00000
     60      -6.4835      1.00000
     61      -6.3448      1.00000
     62      -6.3247      1.00000
     63      -6.0973      1.00000
     64      -5.9544      1.00000
     65      -5.8531      1.00000
     66      -5.8414      1.00000
     67      -5.6263      1.00000
     68      -5.6087      1.00000
     69      -5.5696      1.00000
     70      -5.5444      1.00000
     71      -5.4728      1.00000
     72      -5.3778      1.00000
     73      -5.1620      1.00000
     74      -5.1397      1.00000
     75      -5.0941      1.00000
     76      -5.0713      1.00000
     77      -4.9891      1.00000
     78      -4.9276      1.00000
     79      -4.8411      1.00000
     80      -4.8121      1.00000
     81      -4.7667      1.00000
     82      -4.7556      1.00000
     83      -4.6843      1.00000
     84      -4.5496      1.00000
     85      -4.5348      1.00000
     86      -4.4300      1.00000
     87      -4.2305      1.00000
     88      -4.1942      1.00000
     89      -4.1718      1.00000
     90      -4.1383      1.00000
     91      -3.9749      1.00000
     92      -3.8890      1.00000
     93      -3.6898      1.00000
     94      -3.6542      1.00000
     95      -3.5175      1.00000
     96      -3.4556      1.00000
     97      -3.3694      1.00000
     98      -3.2948      1.00000
     99      -3.2276      1.00000
    100      -3.1572      1.00000
    101      -2.9068      1.00000
    102      -2.4855      1.00000
    103      -2.3471      1.00000
    104      -2.2864      1.00000
    105      -2.0489      1.00000
    106      -1.8004      1.00000
    107      -1.7243      1.00000
    108      -1.7032      1.00000
    109      -1.5934      1.00000
    110      -1.5744      1.00000
    111      -1.4043      1.00000
    112      -1.0019      1.00000
    113      -0.8455      1.00000
    114      -0.8154      1.00000
    115      -0.7944      1.00000
    116      -0.6790      1.00000
    117      -0.5885      1.00000
    118      -0.4735      1.00000
    119      -0.3098      1.00000
    120      -0.0208      1.00000
    121       0.0639      1.00000
    122       1.1108      0.00000
    123       1.1173      0.00000
    124       1.2571      0.00000
    125       2.1884      0.00000
    126       2.2273      0.00000
    127       2.4338      0.00000
    128       2.5753      0.00000
    129       2.6594      0.00000
    130       2.8051      0.00000
    131       2.8199      0.00000
    132       2.8618      0.00000
    133       2.9322      0.00000
    134       3.0244      0.00000
    135       3.0690      0.00000
    136       3.2289      0.00000
    137       3.2969      0.00000
    138       3.3987      0.00000
    139       3.5051      0.00000
    140       3.6718      0.00000
    141       3.7462      0.00000
    142       3.8930      0.00000
    143       3.9241      0.00000
    144       4.0085      0.00000
    145       4.0697      0.00000
    146       4.2012      0.00000
    147       4.2684      0.00000
    148       4.5483      0.00000
    149       4.6802      0.00000
    150       4.8355      0.00000
    151       4.8532      0.00000
    152       4.9270      0.00000
    153       5.0411      0.00000
    154       5.1287      0.00000
    155       5.3165      0.00000
    156       5.4088      0.00000
    157       5.6227      0.00000
    158       6.1842      0.00000
    159       6.5399      0.00000
    160       6.9097      0.00000

 k-point     3 :       0.2500   -0.2500    0.2500
  band No.  band energies     occupation 
      1     -36.8422      1.00000
      2     -36.8024      1.00000
      3     -36.7859      1.00000
      4     -35.3687      1.00000
      5     -35.1358      1.00000
      6     -35.1217      1.00000
      7     -35.0417      1.00000
      8     -35.0305      1.00000
      9     -34.8091      1.00000
     10     -34.8089      1.00000
     11     -34.7817      1.00000
     12     -34.7285      1.00000
     13     -34.5234      1.00000
     14     -34.4904      1.00000
     15     -34.2827      1.00000
     16     -34.2095      1.00000
     17     -33.9219      1.00000
     18     -33.8646      1.00000
     19     -33.8368      1.00000
     20     -33.6170      1.00000
     21     -33.5812      1.00000
     22     -33.2118      1.00000
     23     -33.1876      1.00000
     24     -33.1636      1.00000
     25     -24.4568      1.00000
     26     -24.1917      1.00000
     27     -24.0896      1.00000
     28     -24.0503      1.00000
     29     -23.9362      1.00000
     30     -23.7519      1.00000
     31     -23.7381      1.00000
     32     -23.6828      1.00000
     33     -23.6383      1.00000
     34     -23.3064      1.00000
     35     -23.1552      1.00000
     36     -23.1129      1.00000
     37     -22.8587      1.00000
     38     -22.7924      1.00000
     39     -22.1029      1.00000
     40     -22.0158      1.00000
     41     -16.6278      1.00000
     42     -16.4433      1.00000
     43     -16.1718      1.00000
     44     -15.8668      1.00000
     45     -15.5234      1.00000
     46     -15.3229      1.00000
     47     -15.2652      1.00000
     48     -14.8829      1.00000
     49      -7.8575      1.00000
     50      -7.7666      1.00000
     51      -7.6889      1.00000
     52      -7.4847      1.00000
     53      -7.1085      1.00000
     54      -6.7149      1.00000
     55      -6.6681      1.00000
     56      -6.6289      1.00000
     57      -6.5714      1.00000
     58      -6.5406      1.00000
     59      -6.4953      1.00000
     60      -6.4820      1.00000
     61      -6.3437      1.00000
     62      -6.3249      1.00000
     63      -6.0936      1.00000
     64      -5.9428      1.00000
     65      -5.8564      1.00000
     66      -5.8469      1.00000
     67      -5.6316      1.00000
     68      -5.6178      1.00000
     69      -5.5911      1.00000
     70      -5.5541      1.00000
     71      -5.4779      1.00000
     72      -5.3804      1.00000
     73      -5.1599      1.00000
     74      -5.1336      1.00000
     75      -5.0901      1.00000
     76      -5.0486      1.00000
     77      -4.9863      1.00000
     78      -4.8887      1.00000
     79      -4.8359      1.00000
     80      -4.8198      1.00000
     81      -4.7646      1.00000
     82      -4.7540      1.00000
     83      -4.6710      1.00000
     84      -4.5540      1.00000
     85      -4.5333      1.00000
     86      -4.4533      1.00000
     87      -4.2303      1.00000
     88      -4.1949      1.00000
     89      -4.1781      1.00000
     90      -4.1412      1.00000
     91      -3.9801      1.00000
     92      -3.8890      1.00000
     93      -3.6780      1.00000
     94      -3.6458      1.00000
     95      -3.5299      1.00000
     96      -3.4663      1.00000
     97      -3.3570      1.00000
     98      -3.2926      1.00000
     99      -3.2455      1.00000
    100      -3.1575      1.00000
    101      -2.9506      1.00000
    102      -2.5181      1.00000
    103      -2.3154      1.00000
    104      -2.2702      1.00000
    105      -1.9352      1.00000
    106      -1.7905      1.00000
    107      -1.7378      1.00000
    108      -1.7255      1.00000
    109      -1.6444      1.00000
    110      -1.5647      1.00000
    111      -1.4084      1.00000
    112      -1.0021      1.00000
    113      -0.8633      1.00000
    114      -0.8123      1.00000
    115      -0.8045      1.00000
    116      -0.6927      1.00000
    117      -0.5828      1.00000
    118      -0.4689      1.00000
    119      -0.3068      1.00000
    120      -0.0106      1.00000
    121       0.0720      1.00000
    122       1.1111      0.00000
    123       1.1173      0.00000
    124       1.2552      0.00000
    125       2.1889      0.00000
    126       2.2317      0.00000
    127       2.4338      0.00000
    128       2.5741      0.00000
    129       2.6598      0.00000
    130       2.7654      0.00000
    131       2.7966      0.00000
    132       2.8643      0.00000
    133       2.9289      0.00000
    134       3.0398      0.00000
    135       3.1303      0.00000
    136       3.2304      0.00000
    137       3.2987      0.00000
    138       3.3657      0.00000
    139       3.5038      0.00000
    140       3.6714      0.00000
    141       3.7476      0.00000
    142       3.8982      0.00000
    143       3.9247      0.00000
    144       4.0601      0.00000
    145       4.0762      0.00000
    146       4.1686      0.00000
    147       4.2537      0.00000
    148       4.5074      0.00000
    149       4.6943      0.00000
    150       4.8322      0.00000
    151       4.8741      0.00000
    152       4.9308      0.00000
    153       5.0397      0.00000
    154       5.1345      0.00000
    155       5.3224      0.00000
    156       5.4398      0.00000
    157       5.5818      0.00000
    158       6.1755      0.00000
    159       6.5360      0.00000
    160       6.9134      0.00000

 k-point     4 :      -0.2500   -0.2500    0.2500
  band No.  band energies     occupation 
      1     -36.8422      1.00000
      2     -36.8024      1.00000
      3     -36.7859      1.00000
      4     -35.3687      1.00000
      5     -35.1358      1.00000
      6     -35.1217      1.00000
      7     -35.0417      1.00000
      8     -35.0305      1.00000
      9     -34.8091      1.00000
     10     -34.8089      1.00000
     11     -34.7817      1.00000
     12     -34.7285      1.00000
     13     -34.5234      1.00000
     14     -34.4904      1.00000
     15     -34.2827      1.00000
     16     -34.2095      1.00000
     17     -33.9219      1.00000
     18     -33.8646      1.00000
     19     -33.8368      1.00000
     20     -33.6170      1.00000
     21     -33.5812      1.00000
     22     -33.2118      1.00000
     23     -33.1876      1.00000
     24     -33.1636      1.00000
     25     -24.4569      1.00000
     26     -24.1916      1.00000
     27     -24.0896      1.00000
     28     -24.0491      1.00000
     29     -23.9377      1.00000
     30     -23.7518      1.00000
     31     -23.7381      1.00000
     32     -23.6824      1.00000
     33     -23.6383      1.00000
     34     -23.3065      1.00000
     35     -23.1552      1.00000
     36     -23.1130      1.00000
     37     -22.8587      1.00000
     38     -22.7923      1.00000
     39     -22.1029      1.00000
     40     -22.0158      1.00000
     41     -16.6278      1.00000
     42     -16.4433      1.00000
     43     -16.1729      1.00000
     44     -15.8627      1.00000
     45     -15.5273      1.00000
     46     -15.3308      1.00000
     47     -15.2559      1.00000
     48     -14.8832      1.00000
     49      -7.8580      1.00000
     50      -7.7668      1.00000
     51      -7.6893      1.00000
     52      -7.4836      1.00000
     53      -7.1088      1.00000
     54      -6.7163      1.00000
     55      -6.6682      1.00000
     56      -6.6315      1.00000
     57      -6.5713      1.00000
     58      -6.5376      1.00000
     59      -6.4955      1.00000
     60      -6.4818      1.00000
     61      -6.3450      1.00000
     62      -6.3250      1.00000
     63      -6.0932      1.00000
     64      -5.9430      1.00000
     65      -5.8535      1.00000
     66      -5.8407      1.00000
     67      -5.6267      1.00000
     68      -5.6201      1.00000
     69      -5.5888      1.00000
     70      -5.5512      1.00000
     71      -5.4782      1.00000
     72      -5.3774      1.00000
     73      -5.1641      1.00000
     74      -5.1340      1.00000
     75      -5.0931      1.00000
     76      -5.0639      1.00000
     77      -4.9876      1.00000
     78      -4.8955      1.00000
     79      -4.8402      1.00000
     80      -4.8095      1.00000
     81      -4.7649      1.00000
     82      -4.7535      1.00000
     83      -4.6842      1.00000
     84      -4.5514      1.00000
     85      -4.5343      1.00000
     86      -4.4474      1.00000
     87      -4.2238      1.00000
     88      -4.1954      1.00000
     89      -4.1732      1.00000
     90      -4.1427      1.00000
     91      -3.9750      1.00000
     92      -3.8891      1.00000
     93      -3.6746      1.00000
     94      -3.6534      1.00000
     95      -3.5288      1.00000
     96      -3.4816      1.00000
     97      -3.3519      1.00000
     98      -3.2644      1.00000
     99      -3.2131      1.00000
    100      -3.2010      1.00000
    101      -2.9499      1.00000
    102      -2.4814      1.00000
    103      -2.3040      1.00000
    104      -2.2732      1.00000
    105      -2.0410      1.00000
    106      -1.7896      1.00000
    107      -1.7406      1.00000
    108      -1.7222      1.00000
    109      -1.6036      1.00000
    110      -1.5561      1.00000
    111      -1.4208      1.00000
    112      -1.0180      1.00000
    113      -0.8522      1.00000
    114      -0.8097      1.00000
    115      -0.7848      1.00000
    116      -0.6874      1.00000
    117      -0.5725      1.00000
    118      -0.4771      1.00000
    119      -0.3154      1.00000
    120      -0.0068      1.00000
    121       0.0729      1.00000
    122       1.1108      0.00000
    123       1.1173      0.00000
    124       1.2551      0.00000
    125       2.1887      0.00000
    126       2.2321      0.00000
    127       2.4335      0.00000
    128       2.5747      0.00000
    129       2.6592      0.00000
    130       2.7656      0.00000
    131       2.8076      0.00000
    132       2.8622      0.00000
    133       2.9092      0.00000
    134       3.0383      0.00000
    135       3.1310      0.00000
    136       3.2299      0.00000
    137       3.2984      0.00000
    138       3.3644      0.00000
    139       3.5008      0.00000
    140       3.6785      0.00000
    141       3.7408      0.00000
    142       3.8984      0.00000
    143       3.9223      0.00000
    144       4.0668      0.00000
    145       4.0699      0.00000
    146       4.1955      0.00000
    147       4.2468      0.00000
    148       4.4994      0.00000
    149       4.7210      0.00000
    150       4.8289      0.00000
    151       4.8576      0.00000
    152       4.9298      0.00000
    153       5.0411      0.00000
    154       5.1334      0.00000
    155       5.3208      0.00000
    156       5.4452      0.00000
    157       5.5711      0.00000
    158       6.1756      0.00000
    159       6.5340      0.00000
    160       6.9117      0.00000

 spin component 2

 k-point     1 :       0.2500    0.2500    0.2500
  band No.  band energies     occupation 
      1     -36.8175      1.00000
      2     -36.7982      1.00000
      3     -36.7631      1.00000
      4     -35.1624      1.00000
      5     -35.1073      1.00000
      6     -35.0462      1.00000
      7     -35.0181      1.00000
      8     -34.9997      1.00000
      9     -34.8132      1.00000
     10     -34.8042      1.00000
     11     -34.5414      1.00000
     12     -34.5047      1.00000
     13     -34.2933      1.00000
     14     -34.2220      1.00000
     15     -33.9467      1.00000
     16     -33.8837      1.00000
     17     -33.8572      1.00000
     18     -33.6444      1.00000
     19     -33.6344      1.00000
     20     -33.6120      1.00000
     21     -33.6010      1.00000
     22     -33.2712      1.00000
     23     -33.2559      1.00000
     24     -33.2118      1.00000
     25     -24.4507      1.00000
     26     -24.1900      1.00000
     27     -24.0891      1.00000
     28     -24.0533      1.00000
     29     -23.9244      1.00000
     30     -23.7500      1.00000
     31     -23.7385      1.00000
     32     -23.6794      1.00000
     33     -23.6304      1.00000
     34     -23.2770      1.00000
     35     -23.1470      1.00000
     36     -23.1121      1.00000
     37     -22.8527      1.00000
     38     -22.7916      1.00000
     39     -22.0963      1.00000
     40     -22.0114      1.00000
     41     -16.5911      1.00000
     42     -16.4281      1.00000
     43     -15.7890      1.00000
     44     -15.4895      1.00000
     45     -15.3575      1.00000
     46     -15.0755      1.00000
     47     -14.8756      1.00000
     48     -14.7916      1.00000
     49      -7.8221      1.00000
     50      -7.7648      1.00000
     51      -7.6876      1.00000
     52      -7.4505      1.00000
     53      -7.0579      1.00000
     54      -6.6862      1.00000
     55      -6.6353      1.00000
     56      -6.6229      1.00000
     57      -6.5384      1.00000
     58      -6.4915      1.00000
     59      -6.4805      1.00000
     60      -6.4678      1.00000
     61      -6.3441      1.00000
     62      -6.3237      1.00000
     63      -6.0515      1.00000
     64      -5.9344      1.00000
     65      -5.8455      1.00000
     66      -5.7438      1.00000
     67      -5.6270      1.00000
     68      -5.5651      1.00000
     69      -5.5499      1.00000
     70      -5.5107      1.00000
     71      -5.4733      1.00000
     72      -5.3598      1.00000
     73      -5.1559      1.00000
     74      -5.1263      1.00000
     75      -5.0972      1.00000
     76      -5.0513      1.00000
     77      -4.9717      1.00000
     78      -4.9207      1.00000
     79      -4.8255      1.00000
     80      -4.8087      1.00000
     81      -4.7580      1.00000
     82      -4.7053      1.00000
     83      -4.6699      1.00000
     84      -4.5454      1.00000
     85      -4.4914      1.00000
     86      -4.4389      1.00000
     87      -4.2253      1.00000
     88      -4.1877      1.00000
     89      -4.1723      1.00000
     90      -4.1399      1.00000
     91      -3.9799      1.00000
     92      -3.8514      1.00000
     93      -3.6793      1.00000
     94      -3.5649      1.00000
     95      -3.4138      1.00000
     96      -3.3840      1.00000
     97      -3.3317      1.00000
     98      -3.2553      1.00000
     99      -3.1864      1.00000
    100      -3.1635      1.00000
    101      -2.9022      1.00000
    102      -2.3967      1.00000
    103      -2.3343      1.00000
    104      -2.1288      1.00000
    105      -1.7506      1.00000
    106      -1.6987      1.00000
    107      -1.5947      1.00000
    108      -1.5658      1.00000
    109      -1.4732      1.00000
    110      -1.4251      1.00000
    111      -1.3097      1.00000
    112      -0.7764      1.00000
    113      -0.6645      1.00000
    114      -0.6183      1.00000
    115      -0.4918      1.00000
    116      -0.2978      1.00000
    117      -0.2515      1.00000
    118       0.0737      1.00000
    119       0.3253      1.00000
    120       0.5268      0.00000
    121       1.1384      0.00000
    122       1.1664      0.00000
    123       1.2618      0.00000
    124       2.3317      0.00000
    125       2.4102      0.00000
    126       2.4372      0.00000
    127       2.6642      0.00000
    128       2.8224      0.00000
    129       2.8524      0.00000
    130       2.9194      0.00000
    131       3.0233      0.00000
    132       3.0300      0.00000
    133       3.0958      0.00000
    134       3.1803      0.00000
    135       3.2514      0.00000
    136       3.2589      0.00000
    137       3.5057      0.00000
    138       3.5531      0.00000
    139       3.6542      0.00000
    140       3.7577      0.00000
    141       3.8844      0.00000
    142       3.9993      0.00000
    143       4.0422      0.00000
    144       4.1362      0.00000
    145       4.2224      0.00000
    146       4.2576      0.00000
    147       4.2631      0.00000
    148       4.5952      0.00000
    149       4.7497      0.00000
    150       4.8023      0.00000
    151       4.8611      0.00000
    152       4.9124      0.00000
    153       5.1279      0.00000
    154       5.1923      0.00000
    155       5.4499      0.00000
    156       5.4796      0.00000
    157       5.5792      0.00000
    158       6.2088      0.00000
    159       6.5743      0.00000
    160       6.9112      0.00000

 k-point     2 :      -0.2500    0.2500    0.2500
  band No.  band energies     occupation 
      1     -36.8175      1.00000
      2     -36.7982      1.00000
      3     -36.7631      1.00000
      4     -35.1624      1.00000
      5     -35.1073      1.00000
      6     -35.0462      1.00000
      7     -35.0181      1.00000
      8     -34.9997      1.00000
      9     -34.8132      1.00000
     10     -34.8042      1.00000
     11     -34.5414      1.00000
     12     -34.5047      1.00000
     13     -34.2933      1.00000
     14     -34.2220      1.00000
     15     -33.9467      1.00000
     16     -33.8837      1.00000
     17     -33.8572      1.00000
     18     -33.6444      1.00000
     19     -33.6344      1.00000
     20     -33.6120      1.00000
     21     -33.6010      1.00000
     22     -33.2712      1.00000
     23     -33.2559      1.00000
     24     -33.2118      1.00000
     25     -24.4509      1.00000
     26     -24.1898      1.00000
     27     -24.0891      1.00000
     28     -24.0522      1.00000
     29     -23.9259      1.00000
     30     -23.7499      1.00000
     31     -23.7384      1.00000
     32     -23.6789      1.00000
     33     -23.6305      1.00000
     34     -23.2769      1.00000
     35     -23.1470      1.00000
     36     -23.1123      1.00000
     37     -22.8526      1.00000
     38     -22.7915      1.00000
     39     -22.0964      1.00000
     40     -22.0114      1.00000
     41     -16.5912      1.00000
     42     -16.4281      1.00000
     43     -15.7907      1.00000
     44     -15.4849      1.00000
     45     -15.3559      1.00000
     46     -15.0850      1.00000
     47     -14.8718      1.00000
     48     -14.7904      1.00000
     49      -7.8228      1.00000
     50      -7.7650      1.00000
     51      -7.6881      1.00000
     52      -7.4490      1.00000
     53      -7.0583      1.00000
     54      -6.6884      1.00000
     55      -6.6353      1.00000
     56      -6.6254      1.00000
     57      -6.5356      1.00000
     58      -6.4909      1.00000
     59      -6.4800      1.00000
     60      -6.4684      1.00000
     61      -6.3445      1.00000
     62      -6.3243      1.00000
     63      -6.0511      1.00000
     64      -5.9348      1.00000
     65      -5.8362      1.00000
     66      -5.7441      1.00000
     67      -5.6223      1.00000
     68      -5.5642      1.00000
     69      -5.5453      1.00000
     70      -5.5143      1.00000
     71      -5.4672      1.00000
     72      -5.3577      1.00000
     73      -5.1609      1.00000
     74      -5.1259      1.00000
     75      -5.0981      1.00000
     76      -5.0704      1.00000
     77      -4.9734      1.00000
     78      -4.9237      1.00000
     79      -4.8205      1.00000
     80      -4.8124      1.00000
     81      -4.7617      1.00000
     82      -4.7077      1.00000
     83      -4.6814      1.00000
     84      -4.5457      1.00000
     85      -4.4933      1.00000
     86      -4.4306      1.00000
     87      -4.2185      1.00000
     88      -4.1850      1.00000
     89      -4.1681      1.00000
     90      -4.1352      1.00000
     91      -3.9747      1.00000
     92      -3.8512      1.00000
     93      -3.6781      1.00000
     94      -3.5620      1.00000
     95      -3.4253      1.00000
     96      -3.3969      1.00000
     97      -3.3410      1.00000
     98      -3.2697      1.00000
     99      -3.1779      1.00000
    100      -3.1225      1.00000
    101      -2.9020      1.00000
    102      -2.4019      1.00000
    103      -2.3355      1.00000
    104      -2.1529      1.00000
    105      -1.7497      1.00000
    106      -1.6989      1.00000
    107      -1.5925      1.00000
    108      -1.5422      1.00000
    109      -1.4404      1.00000
    110      -1.4168      1.00000
    111      -1.3422      1.00000
    112      -0.7731      1.00000
    113      -0.6530      1.00000
    114      -0.5941      1.00000
    115      -0.4951      1.00000
    116      -0.3580      1.00000
    117      -0.2868      1.00000
    118       0.0729      1.00000
    119       0.3400      1.00000
    120       0.5574      0.00000
    121       1.1381      0.00000
    122       1.1665      0.00000
    123       1.2617      0.00000
    124       2.3317      0.00000
    125       2.4128      0.00000
    126       2.4345      0.00000
    127       2.6647      0.00000
    128       2.8280      0.00000
    129       2.8579      0.00000
    130       2.9242      0.00000
    131       3.0238      0.00000
    132       3.0339      0.00000
    133       3.0956      0.00000
    134       3.1815      0.00000
    135       3.2470      0.00000
    136       3.2629      0.00000
    137       3.5069      0.00000
    138       3.5487      0.00000
    139       3.6699      0.00000
    140       3.7555      0.00000
    141       3.8835      0.00000
    142       3.9379      0.00000
    143       4.0300      0.00000
    144       4.0908      0.00000
    145       4.2560      0.00000
    146       4.2673      0.00000
    147       4.2872      0.00000
    148       4.6201      0.00000
    149       4.7764      0.00000
    150       4.8068      0.00000
    151       4.8483      0.00000
    152       4.8966      0.00000
    153       5.1293      0.00000
    154       5.1934      0.00000
    155       5.4036      0.00000
    156       5.4750      0.00000
    157       5.6260      0.00000
    158       6.2123      0.00000
    159       6.5709      0.00000
    160       6.9073      0.00000

 k-point     3 :       0.2500   -0.2500    0.2500
  band No.  band energies     occupation 
      1     -36.8175      1.00000
      2     -36.7982      1.00000
      3     -36.7631      1.00000
      4     -35.1624      1.00000
      5     -35.1073      1.00000
      6     -35.0462      1.00000
      7     -35.0181      1.00000
      8     -34.9997      1.00000
      9     -34.8132      1.00000
     10     -34.8042      1.00000
     11     -34.5414      1.00000
     12     -34.5047      1.00000
     13     -34.2933      1.00000
     14     -34.2220      1.00000
     15     -33.9467      1.00000
     16     -33.8837      1.00000
     17     -33.8572      1.00000
     18     -33.6444      1.00000
     19     -33.6344      1.00000
     20     -33.6120      1.00000
     21     -33.6010      1.00000
     22     -33.2712      1.00000
     23     -33.2559      1.00000
     24     -33.2118      1.00000
     25     -24.4507      1.00000
     26     -24.1900      1.00000
     27     -24.0890      1.00000
     28     -24.0533      1.00000
     29     -23.9244      1.00000
     30     -23.7502      1.00000
     31     -23.7383      1.00000
     32     -23.6800      1.00000
     33     -23.6298      1.00000
     34     -23.2770      1.00000
     35     -23.1470      1.00000
     36     -23.1121      1.00000
     37     -22.8526      1.00000
     38     -22.7916      1.00000
     39     -22.0963      1.00000
     40     -22.0115      1.00000
     41     -16.5911      1.00000
     42     -16.4281      1.00000
     43     -15.7897      1.00000
     44     -15.4884      1.00000
     45     -15.3561      1.00000
     46     -15.0781      1.00000
     47     -14.8779      1.00000
     48     -14.7886      1.00000
     49      -7.8220      1.00000
     50      -7.7649      1.00000
     51      -7.6874      1.00000
     52      -7.4499      1.00000
     53      -7.0599      1.00000
     54      -6.6864      1.00000
     55      -6.6357      1.00000
     56      -6.6224      1.00000
     57      -6.5384      1.00000
     58      -6.4924      1.00000
     59      -6.4793      1.00000
     60      -6.4679      1.00000
     61      -6.3434      1.00000
     62      -6.3244      1.00000
     63      -6.0478      1.00000
     64      -5.9218      1.00000
     65      -5.8457      1.00000
     66      -5.7442      1.00000
     67      -5.6286      1.00000
     68      -5.5931      1.00000
     69      -5.5521      1.00000
     70      -5.5215      1.00000
     71      -5.4688      1.00000
     72      -5.3598      1.00000
     73      -5.1571      1.00000
     74      -5.1223      1.00000
     75      -5.0924      1.00000
     76      -5.0475      1.00000
     77      -4.9719      1.00000
     78      -4.8859      1.00000
     79      -4.8278      1.00000
     80      -4.8077      1.00000
     81      -4.7601      1.00000
     82      -4.7044      1.00000
     83      -4.6703      1.00000
     84      -4.5499      1.00000
     85      -4.4929      1.00000
     86      -4.4534      1.00000
     87      -4.2181      1.00000
     88      -4.1870      1.00000
     89      -4.1734      1.00000
     90      -4.1384      1.00000
     91      -3.9797      1.00000
     92      -3.8513      1.00000
     93      -3.6512      1.00000
     94      -3.5704      1.00000
     95      -3.4570      1.00000
     96      -3.3840      1.00000
     97      -3.3259      1.00000
     98      -3.2679      1.00000
     99      -3.1982      1.00000
    100      -3.1259      1.00000
    101      -2.9444      1.00000
    102      -2.3996      1.00000
    103      -2.2687      1.00000
    104      -2.1400      1.00000
    105      -1.7428      1.00000
    106      -1.7223      1.00000
    107      -1.5939      1.00000
    108      -1.5677      1.00000
    109      -1.4473      1.00000
    110      -1.4123      1.00000
[...]
  0.000  -0.000   0.000   0.000  -0.000   0.000  -0.015  -0.000  -0.000   0.009  -0.000  -0.008  -0.000  -0.000  -0.003   0.000
 -0.000   0.000   0.000  -0.000   0.000   0.000  -0.000  -0.000   0.001  -0.000   0.010  -0.000  -0.000   0.000   0.000  -0.003
 -0.000  -0.000   0.000  -0.002  -0.000  -0.000   0.594   0.010  -0.000  -0.008  -0.000   0.458   0.008  -0.000  -0.007  -0.000
 -0.000   0.000   0.000  -0.000  -0.000  -0.000   0.010  -0.003   0.000  -0.000  -0.000   0.008  -0.007  -0.000  -0.000   0.000
 -0.000   0.000  -0.000  -0.000   0.000  -0.000  -0.000   0.000  -0.002  -0.000   0.000  -0.000  -0.000  -0.029   0.000  -0.001
  0.000   0.000   0.000   0.000  -0.000   0.000  -0.008  -0.000  -0.000  -0.003   0.000  -0.007  -0.000   0.000  -0.005   0.000
 -0.000  -0.000  -0.000  -0.000   0.000   0.000  -0.000   0.000   0.000   0.000  -0.003  -0.000   0.000  -0.001   0.000  -0.013
  0.000  -0.000  -0.000   0.000  -0.000   0.000   0.000  -0.000  -0.009   0.000  -0.002   0.000   0.000   0.027  -0.001   0.000
  0.000  -0.000   0.000   0.000  -0.000   0.000   0.000  -0.000  -0.026   0.000  -0.003   0.000   0.000   0.038  -0.000   0.004


------------------------ aborting loop because EDIFF is reached ----------------------------------------


 


 total charge     
 
# of ion       s       p       d       tot
------------------------------------------
    1        0.239   6.336   1.826   8.401
    2        0.313   6.470   1.837   8.619
    3        0.316   6.472   1.827   8.615
    4        0.307   6.439   1.754   8.500
    5        0.326   6.514   1.736   8.576
    6        0.288   6.457   1.815   8.560
    7        0.291   6.455   1.801   8.546
    8        0.304   6.414   1.653   8.370
    9        1.571   3.423   0.000   4.994
   10        1.576   3.290   0.000   4.866
   11        1.574   3.444   0.000   5.018
   12        1.566   3.415   0.000   4.981
   13        1.571   3.395   0.000   4.966
   14        1.573   3.445   0.000   5.018
   15        1.569   3.385   0.000   4.954
   16        1.572   3.397   0.000   4.969
   17        1.730   4.388   0.000   6.118
   18        1.730   4.387   0.000   6.116
   19        1.729   4.385   0.000   6.114
   20        1.730   4.388   0.000   6.118
   21        1.730   4.387   0.000   6.116
   22        1.730   4.388   0.000   6.118
   23        1.730   4.399   0.000   6.129
   24        1.729   4.375   0.000   6.103
   25        1.729   4.398   0.000   6.128
   26        1.733   4.385   0.000   6.118
   27        1.733   4.386   0.000   6.119
   28        1.731   4.401   0.000   6.131
   29        1.730   4.400   0.000   6.130
   30        1.729   4.375   0.000   6.104
   31        1.733   4.385   0.000   6.118
   32        1.733   4.386   0.000   6.119
--------------------------------------------------
tot         42.642 148.963  14.249 205.853
 


 magnetization (x)
 
# of ion       s       p       d       tot
------------------------------------------
    1        0.004   0.006   0.913   0.924
    2       -0.000  -0.000  -0.004  -0.004
    3       -0.000   0.000   0.010   0.010
    4       -0.001  -0.002  -0.024  -0.027
    5       -0.000  -0.000   0.017   0.017
    6       -0.000   0.000  -0.014  -0.014
    7       -0.000   0.001  -0.020  -0.020
    8       -0.003  -0.004  -0.062  -0.069
    9        0.000   0.026   0.000   0.026
   10        0.008   0.526   0.000   0.534
   11        0.000   0.004   0.000   0.004
   12        0.001   0.059   0.000   0.060
   13        0.000   0.020   0.000   0.020
   14        0.001   0.013   0.000   0.014
   15        0.003   0.190   0.000   0.193
   16        0.001   0.051   0.000   0.052
   17       -0.000  -0.000   0.000  -0.001
   18        0.000   0.001   0.000   0.001
   19        0.000   0.004   0.000   0.004
   20       -0.000  -0.000   0.000  -0.001
   21        0.000   0.000   0.000   0.000
   22        0.000   0.002   0.000   0.002
   23       -0.000   0.005   0.000   0.005
   24        0.000   0.001   0.000   0.001
   25       -0.000   0.005   0.000   0.005
   26       -0.000   0.001   0.000   0.001
   27       -0.000   0.001   0.000   0.001
   28       -0.000  -0.009   0.000  -0.009
   29       -0.000  -0.009   0.000  -0.009
   30        0.000   0.005   0.000   0.005
   31       -0.000  -0.000   0.000  -0.000
   32       -0.000  -0.000   0.000  -0.000
--------------------------------------------------
tot          0.013   0.897   0.815   1.725
 
    CHARGE:  cpu time    0.4049: real time    0.4023
    FORLOC:  cpu time    0.0100: real time    0.0101
    FORNL :  cpu time    2.0797: real time    2.0722
    STRESS:  cpu time    6.3930: real time    6.3640
    FORCOR:  cpu time    0.1310: real time    0.1298
    FORHAR:  cpu time    0.0200: real time    0.0213
    MIXING:  cpu time    0.0020: real time    0.0018
    OFIELD:  cpu time    0.0000: real time    0.0000

  FORCE on cell =-STRESS in cart. coord.  units (eV):
  Direction    XX          YY          ZZ          XY          YZ          ZX
  --------------------------------------------------------------------------------------
  Alpha Z   741.06101   741.06101   741.06101
  Ewald   -4248.02512 -4182.68619 -4165.31865    -0.68762   -16.06297   -35.32211
  Hartree  2783.28268  2821.55420  2793.95426    -0.12466    -7.30909   -18.64393
  E(xc)   -1231.84817 -1232.03241 -1231.90440     0.00440     0.04328    -0.01458
  Local   -2182.09411 -2313.37837 -2268.65249     1.32078    17.98842    54.59905
  n-local  -973.71065  -972.97960  -965.98820    -0.00141    -1.66389     0.04039
  augment   752.87775   762.22621   749.60490    -0.18865     0.72140    -0.14451
  Kinetic  4358.62165  4376.28824  4347.43093    -0.32423     6.29978    -0.51616
  Fock        0.00000     0.00000     0.00000     0.00000     0.00000     0.00000
  -------------------------------------------------------------------------------------
  Total       0.16503     0.05310     0.18736    -0.00139     0.01695    -0.00184
  in kB       0.55959     0.18004     0.63528    -0.00471     0.05746    -0.00625
  external pressure =        0.46 kB  Pullay stress =        0.00 kB


 VOLUME and BASIS-vectors are now :
 -----------------------------------------------------------------------------
  energy-cutoff  :      700.00
  volume of cell :      472.52
      direct lattice vectors                 reciprocal lattice vectors
     7.846258603 -0.001475238 -0.031204820     0.127451291  0.000025611  0.000504872
    -0.001518998  7.763852756 -0.010381888     0.000024899  0.128802265  0.000171390
    -0.030725265 -0.010315715  7.756894101     0.000512751  0.000172493  0.128919838

  length of vectors
     7.846320792  7.763859846  7.756961812     0.127452294  0.128802381  0.128920973


 FORCES acting on ions
    electron-ion (+dipol)            ewald-force                    non-local-force                 convergence-correction
 -----------------------------------------------------------------------------------------------
   0.114E+01 0.990E+01 0.109E+02   -.114E+01 -.980E+01 -.108E+02   -.348E-03 -.101E+00 -.116E+00   -.359E-03 -.125E-02 0.117E-02
   0.675E+01 0.203E+02 -.960E+01   -.669E+01 -.199E+02 0.953E+01   -.534E-01 -.340E+00 0.759E-01   -.474E-03 -.319E-02 -.991E-03
   -.811E+01 -.866E+01 0.280E+02   0.800E+01 0.860E+01 -.278E+02   0.114E+00 0.632E-01 -.194E+00   -.110E-02 0.158E-02 0.833E-03
   0.417E+02 -.256E+02 -.275E+02   -.415E+02 0.263E+02 0.283E+02   -.169E+00 -.789E+00 -.769E+00   -.506E-02 0.329E-02 -.912E-03
   -.136E+01 0.330E+01 0.426E+00   0.135E+01 -.329E+01 -.452E+00   0.990E-02 0.319E-02 0.290E-01   0.381E-03 -.298E-02 0.285E-02
   -.112E+01 0.638E+00 -.310E+01   0.111E+01 -.364E-01 0.310E+01   0.533E-02 -.575E+00 0.576E-02   0.111E-02 -.296E-01 -.252E-02
   0.580E+01 -.548E+01 -.728E+01   -.561E+01 0.544E+01 0.778E+01   -.194E+00 0.383E-01 -.523E+00   0.709E-03 0.313E-02 0.248E-01
   0.594E+01 -.395E+02 -.354E+02   -.570E+01 0.386E+02 0.347E+02   -.238E+00 0.833E+00 0.758E+00   0.574E-02 0.293E-01 -.260E-01
   -.857E+02 -.109E+02 -.791E+01   0.925E+02 0.110E+02 0.802E+01   -.681E+01 -.979E-01 -.111E+00   -.119E-02 0.612E-02 -.552E-02
   -.116E+01 -.134E+02 -.992E+01   0.349E+01 0.131E+02 0.971E+01   -.232E+01 0.220E+00 0.224E+00   -.844E-04 0.383E-02 -.897E-02
   0.102E+02 0.110E+03 -.381E+01   -.109E+02 -.119E+03 0.353E+01   0.705E+00 0.900E+01 0.282E+00   0.980E-03 -.600E-02 0.502E-03
   -.435E+00 -.592E+02 -.104E+02   0.343E+00 0.595E+02 0.110E+02   0.963E-01 -.352E+00 -.515E+00   -.120E-02 0.159E-01 -.554E-02
   0.770E+00 0.135E+03 -.725E+01   -.980E+00 -.144E+03 0.737E+01   0.215E+00 0.898E+01 -.117E+00   -.144E-02 -.150E-01 -.342E-02
   0.160E+02 -.324E+01 0.105E+03   -.173E+02 0.291E+01 -.113E+03   0.129E+01 0.325E+00 0.838E+01   -.363E-02 0.287E-02 0.251E-02
   -.662E+01 -.118E+02 -.539E+02   0.695E+01 0.124E+02 0.545E+02   -.338E+00 -.556E+00 -.568E+00   0.552E-02 0.365E-02 -.122E-01
   -.401E+01 -.885E+01 0.130E+03   0.382E+01 0.905E+01 -.139E+03   0.184E+00 -.207E+00 0.867E+01   0.387E-02 0.639E-02 0.120E-01
   0.569E+02 0.440E+01 0.353E+01   -.636E+02 -.453E+01 -.372E+01   0.672E+01 0.132E+00 0.198E+00   0.537E-03 -.165E-02 0.127E-02
   -.405E+02 -.128E+02 -.356E+01   0.442E+02 0.171E+02 0.366E+01   -.367E+01 -.428E+01 -.919E-01   -.117E-01 -.787E-02 -.115E-02
   -.313E+02 -.436E+01 -.150E+02   0.334E+02 0.441E+01 0.191E+02   -.216E+01 -.455E-01 -.415E+01   0.996E-02 0.154E-02 0.671E-02
   -.574E+02 0.442E+01 0.476E+01   0.643E+02 -.454E+01 -.485E+01   -.685E+01 0.132E+00 0.954E-01   -.504E-03 -.156E-02 0.145E-02
   0.382E+02 -.905E+01 -.526E+01   -.421E+02 0.129E+02 0.532E+01   0.388E+01 -.385E+01 -.434E-01   0.110E-01 -.736E-02 -.157E-02
   0.327E+02 -.485E+01 -.876E+01   -.348E+02 0.496E+01 0.128E+02   0.212E+01 -.973E-01 -.404E+01   -.958E-02 0.122E-02 0.688E-02
   -.235E+01 0.317E+01 -.761E+01   0.259E+01 -.421E+01 0.109E+02   -.245E+00 0.104E+01 -.326E+01   -.474E-03 0.547E-02 0.926E-03
   0.142E+02 -.560E+02 -.662E+01   -.156E+02 0.566E+02 0.642E+01   0.141E+01 -.651E+00 0.205E+00   0.120E-02 0.523E-02 -.270E-02
   -.248E+01 -.329E+01 -.665E+01   0.274E+01 0.418E+01 0.970E+01   -.255E+00 -.887E+00 -.306E+01   -.387E-03 -.553E-02 0.115E-02
   0.212E+01 -.887E+02 -.141E+01   -.242E+01 0.975E+02 0.221E+01   0.307E+00 -.880E+01 -.803E+00   0.538E-03 0.131E-01 0.621E-02
   0.219E+01 0.891E+02 -.586E+00   -.250E+01 -.976E+02 0.129E+01   0.314E+00 0.848E+01 -.709E+00   0.328E-03 -.134E-01 0.545E-02
   0.169E+01 -.646E+01 -.199E+02   -.183E+01 0.939E+01 0.229E+02   0.141E+00 -.292E+01 -.299E+01   -.353E-03 -.142E-02 -.511E-02
   0.275E+01 -.583E+01 0.201E+02   -.280E+01 0.855E+01 -.232E+02   0.518E-01 -.272E+01 0.314E+01   -.192E-03 -.124E-02 0.510E-02
   0.117E+02 -.632E+01 -.523E+02   -.134E+02 0.610E+01 0.517E+02   0.170E+01 0.222E+00 0.521E+00   -.390E-02 -.170E-03 -.239E-02
   -.154E+01 0.992E+00 -.937E+02   0.186E+01 -.276E+00 0.103E+03   -.328E+00 -.709E+00 -.969E+01   0.729E-03 -.622E-02 -.156E-01
   -.218E+01 0.215E+01 0.945E+02   0.230E+01 -.155E+01 -.104E+03   -.118E+00 -.590E+00 0.943E+01   0.332E-03 -.699E-02 0.155E-01
 -----------------------------------------------------------------------------------------------
   0.450E+01 -.878E+00 -.264E+00   -.114E-12 -.211E-13 0.142E-13   -.450E+01 0.888E+00 0.263E+00   0.125E-02 -.881E-02 0.775E-03
 
 
 POSITION                                       TOTAL-FORCE (eV/Angst)
 -----------------------------------------------------------------------------------
      0.00065      0.00802      0.00649        -0.000326      0.002360      0.000525
      7.80987      7.60023      3.83771         0.000111     -0.004362      0.000634
     -0.02384      3.87454      7.58016         0.000459      0.002659     -0.001424
      0.10845      3.88176      3.86237        -0.000826     -0.004177     -0.003991
      3.92308      0.01134      0.00271        -0.000320      0.004918      0.005322
      3.88591      7.72306      3.87227         0.000330     -0.003129      0.005101
      3.91163      3.88372      7.69705        -0.000897      0.004400     -0.002223
      3.90075      3.79048      3.80445         0.002332      0.000016     -0.000455
      1.88729      3.85955      3.84296         0.001740     -0.006359     -0.005799
      5.86915      3.85194      3.79349         0.000236     -0.006256     -0.003017
      7.82694      5.87443      3.81613        -0.000212     -0.002694     -0.000473
      3.88496      1.85888      3.88672         0.003200     -0.006085     -0.000566
      3.87310      5.93975      3.86935         0.002773     -0.001886      0.003108
      7.79665      3.85493      5.81393         0.005774      0.001678     -0.006638
      3.98095      3.88779      1.86457        -0.004343     -0.002076     -0.000179
      3.92377      3.87311      5.91511        -0.002775      0.000740     -0.003668
      2.02295      0.00373     -0.00439        -0.000648      0.004185      0.006506
      1.88627      0.05311      3.88566         0.001280     -0.003345      0.004394
      1.94807      3.89256      0.04103        -0.000825      0.003786     -0.001810
      5.82231      0.00295     -0.01439        -0.000230      0.004897      0.004984
      5.89120      0.03556      3.86867        -0.001053     -0.004606      0.006254
      5.92391      3.89490      0.01163        -0.000037      0.005313     -0.006061
      0.01393      1.96636      0.03464        -0.001251      0.001082     -0.003595
      7.81348      1.85953      3.82799        -0.002046     -0.003727     -0.002358
      0.01390      5.81034      0.02286         0.000961      0.003403     -0.005423
      3.91805      1.87895      0.00303         0.002957      0.002626      0.001340
      3.91764      5.90502     -0.00612         0.002371      0.004689      0.002443
      7.82440      0.03270      1.89255        -0.001648     -0.000639      0.001131
      7.81228      0.02103      5.81153        -0.000695     -0.000744     -0.000129
      7.81699      3.87084      1.82665         0.001111      0.001291     -0.003237
      3.91914      0.01321      1.86184        -0.004343      0.000622      0.005828
      3.89562      0.00304      5.89901        -0.003159      0.001418      0.003476
 -----------------------------------------------------------------------------------
    total drift:                                0.002038      0.000901     -0.000077


--------------------------------------------------------------------------------------------------------



  FREE ENERGIE OF THE ION-ELECTRON SYSTEM (eV)
  ---------------------------------------------------
  free  energy   TOTEN  =      -207.84182646 eV

  energy  without entropy=     -207.84182646  energy(sigma->0) =     -207.84182646
 


--------------------------------------------------------------------------------------------------------


    POTLOK:  cpu time    1.0258: real time    1.0238


--------------------------------------------------------------------------------------------------------


 stress matrix after NEB project (eV)
      0.16503     -0.00139     -0.00184
     -0.00139      0.05310      0.01699
     -0.00185      0.01695      0.18736
  FORCES: max atom, RMS     0.008956    0.005670
  FORCE total and by dimension    0.032076    0.006638
  Stress total and by dimension    0.256410    0.187359
 Quasi-Newton relaxation of ions (Broydens 2nd method)
  g(Force)  = 0.496E-04   g(Stress)= 0.991E-04

 Reset! Starting new Quasi-Newton update for ions 


--------------------------------------------------------------------------------------------------------


  
 reached required accuracy - stopping structural energy minimisation
 writing wavefunctions
     LOOP+:  cpu time   49.2925: real time   54.6342
    4ORBIT:  cpu time    0.0000: real time    0.0000
 


 total charge     
 
# of ion       s       p       d       tot
------------------------------------------
    1        0.239   6.336   1.826   8.401
    2        0.313   6.470   1.837   8.619
    3        0.316   6.472   1.827   8.615
    4        0.307   6.439   1.754   8.500
    5        0.326   6.514   1.736   8.576
    6        0.288   6.457   1.815   8.560
    7        0.291   6.455   1.801   8.546
    8        0.304   6.414   1.653   8.370
    9        1.571   3.423   0.000   4.994
   10        1.576   3.290   0.000   4.866
   11        1.574   3.444   0.000   5.018
   12        1.566   3.415   0.000   4.981
   13        1.571   3.395   0.000   4.966
   14        1.573   3.445   0.000   5.018
   15        1.569   3.385   0.000   4.954
   16        1.572   3.397   0.000   4.969
   17        1.730   4.388   0.000   6.118
   18        1.730   4.387   0.000   6.116
   19        1.729   4.385   0.000   6.114
   20        1.730   4.388   0.000   6.118
   21        1.730   4.387   0.000   6.116
   22        1.730   4.388   0.000   6.118
   23        1.730   4.399   0.000   6.129
   24        1.729   4.375   0.000   6.103
   25        1.729   4.398   0.000   6.128
   26        1.733   4.385   0.000   6.118
   27        1.733   4.386   0.000   6.119
   28        1.731   4.401   0.000   6.131
   29        1.730   4.400   0.000   6.130
   30        1.729   4.375   0.000   6.104
   31        1.733   4.385   0.000   6.118
   32        1.733   4.386   0.000   6.119
--------------------------------------------------
tot         42.642 148.963  14.249 205.853
 


 magnetization (x)
 
# of ion       s       p       d       tot
------------------------------------------
    1        0.004   0.006   0.913   0.924
    2       -0.000  -0.000  -0.004  -0.004
    3       -0.000   0.000   0.010   0.010
    4       -0.001  -0.002  -0.024  -0.027
    5       -0.000  -0.000   0.017   0.017
    6       -0.000   0.000  -0.014  -0.014
    7       -0.000   0.001  -0.020  -0.020
    8       -0.003  -0.004  -0.062  -0.069
    9        0.000   0.026   0.000   0.026
   10        0.008   0.526   0.000   0.534
   11        0.000   0.004   0.000   0.004
   12        0.001   0.059   0.000   0.060
   13        0.000   0.020   0.000   0.020
   14        0.001   0.013   0.000   0.014
   15        0.003   0.190   0.000   0.193
   16        0.001   0.051   0.000   0.052
   17       -0.000  -0.000   0.000  -0.001
   18        0.000   0.001   0.000   0.001
   19        0.000   0.004   0.000   0.004
   20       -0.000  -0.000   0.000  -0.001
   21        0.000   0.000   0.000   0.000
   22        0.000   0.002   0.000   0.002
   23       -0.000   0.005   0.000   0.005
   24        0.000   0.001   0.000   0.001
   25       -0.000   0.005   0.000   0.005
   26       -0.000   0.001   0.000   0.001
   27       -0.000   0.001   0.000   0.001
   28       -0.000  -0.009   0.000  -0.009
   29       -0.000  -0.009   0.000  -0.009
   30        0.000   0.005   0.000   0.005
   31       -0.000  -0.000   0.000  -0.000
   32       -0.000  -0.000   0.000  -0.000
--------------------------------------------------
tot          0.013   0.897   0.815   1.725
 

 total amount of memory used by VASP MPI-rank0    62217. kBytes
=======================================================================

   base      :      30000. kBytes
   nonlr-proj:       8395. kBytes
   fftplans  :       8423. kBytes
   grid      :       8783. kBytes
   one-center:        124. kBytes
   wavefun   :       6492. kBytes
 
  
  
 General timing and accounting informations for this job:
 ========================================================
  
                  Total CPU time used (sec):       65.764
                            User time (sec):       62.737
                          System time (sec):        3.027
                         Elapsed time (sec):       79.412
  
                   Maximum memory used (kb):      172628.
                   Average memory used (kb):           0.
  
                          Minor page faults:       105819
                          Major page faults:            3
                 Voluntary context switches:        19759
