 vasp.5.4.4.18Apr17-6-g9f103f2a35 (build Jul 16 2019 12:12:28) complex          
  
 executed on             LinuxIFC date 2020.01.06  10:19:25
 running on   96 total cores
 distrk:  each k-point on   96 cores,    1 groups
 distr:  one band on NCORES_PER_BAND=   8 cores,   12 groups


--------------------------------------------------------------------------------------------------------


 INCAR:
 POTCAR:    PAW_PBE Li_sv 10Sep2004               
 POTCAR:    PAW_PBE Ti_pv 07Sep2000               
 POTCAR:    PAW_PBE O 08Apr2002                   
 POTCAR:    PAW_PBE F 08Apr2002                   
 POTCAR:    PAW_PBE Li_sv 10Sep2004               
   VRHFIN =Li: 1s2s2p                                                           
   LEXCH  = PE                                                                  
   EATOM  =   202.7858 eV,   14.9043 Ry                                         
                                                                                
   TITEL  = PAW_PBE Li_sv 10Sep2004                                             
   LULTRA =        F    use ultrasoft PP ?                                      
   IUNSCR =        0    unscreen: 0-lin 1-nonlin 2-no                           
   RPACOR =    0.000    partial core radius                                     
   POMASS =    7.010; ZVAL   =    3.000    mass and valenz                      
   RCORE  =    1.700    outmost cutoff radius                                   
   RWIGS  =    2.050; RWIGS  =    1.085    wigner-seitz radius (au A)           
   ENMAX  =  499.034; ENMIN  =  374.276 eV                                      
   ICORE  =        2    local potential                                         
   LCOR   =        T    correct aug charges                                     
   LPAW   =        T    paw PP                                                  
   EAUG   =  628.945                                                            
   RMAX   =    1.732    core radius for proj-oper                               
   RAUG   =    1.300    factor for augmentation sphere                          
   RDEP   =    1.728    radius for radial grids                                 
   RDEPT  =    1.329    core radius for aug-charge                              
                                                                                
   Atomic configuration                                                         
    4 entries                                                                   
     n  l   j            E        occ.                                          
     1  0  0.50       -51.8549   2.0000                                         
     2  0  0.50        -2.8742   1.0000                                         
     2  1  0.50        -1.3606   0.0000                                         
     3  2  1.50        -1.3606   0.0000                                         
   Description                                                                  
     l       E           TYP  RCUT    TYP  RCUT                                 
     0    -51.8548813     23  1.400                                             
     0     -2.8742052     23  1.700                                             
     1     -1.3605826     23  1.400                                             
     2     -1.3605826     23  1.400                                             
  local pseudopotential read in
  atomic valenz-charges read in
  non local Contribution for L=           0  read in
    real space projection operators read in
  non local Contribution for L=           0  read in
    real space projection operators read in
  non local Contribution for L=           1  read in
    real space projection operators read in
    PAW grid and wavefunctions read in
 
   number of l-projection  operators is LMAX  =           3
   number of lm-projection operators is LMMAX =           5
 
 POTCAR:    PAW_PBE Ti_pv 07Sep2000               
   VRHFIN =Ti: d3 s1                                                            
   LEXCH  = PE                                                                  
   EATOM  =  1042.5995 eV,   76.6289 Ry                                         
                                                                                
   TITEL  = PAW_PBE Ti_pv 07Sep2000                                             
   LULTRA =        F    use ultrasoft PP ?                                      
   IUNSCR =        1    unscreen: 0-lin 1-nonlin 2-no                           
   RPACOR =    2.200    partial core radius                                     
   POMASS =   47.880; ZVAL   =   10.000    mass and valenz                      
   RCORE  =    2.500    outmost cutoff radius                                   
   RWIGS  =    2.500; RWIGS  =    1.323    wigner-seitz radius (au A)           
   ENMAX  =  222.335; ENMIN  =  166.751 eV                                      
   RCLOC  =    1.701    cutoff for local pot                                    
   LCOR   =        T    correct aug charges                                     
   LPAW   =        T    paw PP                                                  
   EAUG   =  482.848                                                            
   DEXC   =    0.000                                                            
   RMAX   =    2.564    core radius for proj-oper                               
   RAUG   =    1.300    factor for augmentation sphere                          
   RDEP   =    2.538    radius for radial grids                                 
   RDEPT  =    1.952    core radius for aug-charge                              
                                                                                
   Atomic configuration                                                         
    8 entries                                                                   
     n  l   j            E        occ.                                          
     1  0  0.50     -4865.3608   2.0000                                         
     2  0  0.50      -533.1368   2.0000                                         
     2  1  1.50      -440.5031   6.0000                                         
     3  0  0.50       -59.3186   2.0000                                         
     3  1  1.50       -35.7012   6.0000                                         
     3  2  2.50        -1.9157   3.0000                                         
     4  0  0.50        -3.7291   1.0000                                         
     4  3  2.50        -1.3606   0.0000                                         
   Description                                                                  
     l       E           TYP  RCUT    TYP  RCUT                                 
     1    -35.7012140     23  2.300                                             
     1     -1.3605826     23  2.300                                             
     2     -1.9156996     23  2.500                                             
     2     -0.4063033     23  2.500                                             
     0     -3.7290856     23  2.500                                             
     0     20.4087390     23  2.500                                             
  local pseudopotential read in
  partial core-charges read in
  partial kinetic energy density read in
  atomic valenz-charges read in
  non local Contribution for L=           1  read in
    real space projection operators read in
  non local Contribution for L=           1  read in
    real space projection operators read in
  non local Contribution for L=           2  read in
    real space projection operators read in
  non local Contribution for L=           2  read in
    real space projection operators read in
  non local Contribution for L=           0  read in
    real space projection operators read in
  non local Contribution for L=           0  read in
    real space projection operators read in
    PAW grid and wavefunctions read in
 
   number of l-projection  operators is LMAX  =           6
   number of lm-projection operators is LMMAX =          18
 
 POTCAR:    PAW_PBE O 08Apr2002                   
   VRHFIN =O: s2p4                                                              
   LEXCH  = PE                                                                  
   EATOM  =   432.3788 eV,   31.7789 Ry                                         
                                                                                
   TITEL  = PAW_PBE O 08Apr2002                                                 
   LULTRA =        F    use ultrasoft PP ?                                      
   IUNSCR =        1    unscreen: 0-lin 1-nonlin 2-no                           
   RPACOR =    1.200    partial core radius                                     
   POMASS =   16.000; ZVAL   =    6.000    mass and valenz                      
   RCORE  =    1.520    outmost cutoff radius                                   
   RWIGS  =    1.550; RWIGS  =    0.820    wigner-seitz radius (au A)           
   ENMAX  =  400.000; ENMIN  =  300.000 eV                                      
   ICORE  =        2    local potential                                         
   LCOR   =        T    correct aug charges                                     
   LPAW   =        T    paw PP                                                  
   EAUG   =  605.392                                                            
   DEXC   =    0.000                                                            
   RMAX   =    1.553    core radius for proj-oper                               
   RAUG   =    1.300    factor for augmentation sphere                          
   RDEP   =    1.550    radius for radial grids                                 
   RDEPT  =    1.329    core radius for aug-charge                              
                                                                                
   Atomic configuration                                                         
    4 entries                                                                   
     n  l   j            E        occ.                                          
     1  0  0.50      -514.6923   2.0000                                         
     2  0  0.50       -23.9615   2.0000                                         
     2  1  0.50        -9.0305   4.0000                                         
     3  2  1.50        -9.5241   0.0000                                         
   Description                                                                  
     l       E           TYP  RCUT    TYP  RCUT                                 
     0    -23.9615318     23  1.200                                             
     0     -9.5240782     23  1.200                                             
     1     -9.0304911     23  1.520                                             
     1      8.1634956     23  1.520                                             
     2     -9.5240782      7  1.500                                             
  local pseudopotential read in
  partial core-charges read in
  partial kinetic energy density read in
  kinetic energy density of atom read in
  atomic valenz-charges read in
  non local Contribution for L=           0  read in
    real space projection operators read in
  non local Contribution for L=           0  read in
    real space projection operators read in
  non local Contribution for L=           1  read in
    real space projection operators read in
  non local Contribution for L=           1  read in
    real space projection operators read in
    PAW grid and wavefunctions read in
 
   number of l-projection  operators is LMAX  =           4
   number of lm-projection operators is LMMAX =           8
 
 POTCAR:    PAW_PBE F 08Apr2002                   
   VRHFIN =F: s2p5                                                              
   LEXCH  = PE                                                                  
   EATOM  =   659.6475 eV,   48.4827 Ry                                         
                                                                                
   TITEL  = PAW_PBE F 08Apr2002                                                 
   LULTRA =        F    use ultrasoft PP ?                                      
   IUNSCR =        1    unscreen: 0-lin 1-nonlin 2-no                           
   RPACOR =    1.200    partial core radius                                     
   POMASS =   18.998; ZVAL   =    7.000    mass and valenz                      
   RCORE  =    1.520    outmost cutoff radius                                   
   RWIGS  =    1.500; RWIGS  =    0.794    wigner-seitz radius (au A)           
   ENMAX  =  400.000; ENMIN  =  300.000 eV                                      
   ICORE  =        2    local potential                                         
   LCOR   =        T    correct aug charges                                     
   LPAW   =        T    paw PP                                                  
   EAUG   =  613.614                                                            
   RMAX   =    1.555    core radius for proj-oper                               
   RAUG   =    1.300    factor for augmentation sphere                          
   RDEP   =    1.539    radius for radial grids                                 
   RDEPT  =    1.299    core radius for aug-charge                              
                                                                                
   Atomic configuration                                                         
    4 entries                                                                   
     n  l   j            E        occ.                                          
     1  0  0.50      -663.3661   2.0000                                         
     2  0  0.50       -29.8995   2.0000                                         
     2  1  0.50       -11.1114   5.0000                                         
     3  2  1.50       -10.8847   0.0000                                         
   Description                                                                  
     l       E           TYP  RCUT    TYP  RCUT                                 
     0    -29.8995018     23  1.200                                             
     0     -9.5240782     23  1.200                                             
     1    -11.1113914     23  1.520                                             
     1      1.3605826     23  1.520                                             
     2    -10.8846608      7  1.500                                             
  local pseudopotential read in
  partial core-charges read in
  partial kinetic energy density read in
  atomic valenz-charges read in
  non local Contribution for L=           0  read in
    real space projection operators read in
  non local Contribution for L=           0  read in
    real space projection operators read in
  non local Contribution for L=           1  read in
    real space projection operators read in
  non local Contribution for L=           1  read in
    real space projection operators read in
    PAW grid and wavefunctions read in
 
   number of l-projection  operators is LMAX  =           4
   number of lm-projection operators is LMMAX =           8
 
 Optimization of the real space projectors (new method)

 maximal supplied QI-value         = 22.11
 optimisation between [QCUT,QGAM] = [ 11.28, 22.77] = [ 35.61,145.23] Ry 
 Optimized for a Real-space Cutoff    1.31 Angstroem

   l    n(q)    QCUT    max X(q) W(low)/X(q) W(high)/X(q)  e(spline) 
   0      9    11.276    10.506    0.19E-04    0.17E-04    0.32E-07
   0      9    11.276     8.367    0.38E-04    0.40E-04    0.65E-07
   1      8    11.276     8.983    0.55E-04    0.98E-04    0.20E-06
 Optimization of the real space projectors (new method)

 maximal supplied QI-value         = 15.12
 optimisation between [QCUT,QGAM] = [ 11.34, 22.83] = [ 36.00,145.93] Ry 
 Optimized for a Real-space Cutoff    1.56 Angstroem

   l    n(q)    QCUT    max X(q) W(low)/X(q) W(high)/X(q)  e(spline) 
   1     10    11.338     4.216    0.27E-04    0.12E-04    0.66E-07
   1     10    11.338     5.422    0.81E-04    0.24E-04    0.19E-06
   2     10    11.338    72.084    0.64E-04    0.21E-03    0.51E-06
   2     10    11.338    65.965    0.63E-04    0.21E-03    0.50E-06
   0     11    11.338    41.531    0.33E-04    0.54E-04    0.13E-06
   0     11    11.338    16.290    0.26E-04    0.41E-04    0.11E-06
 Optimization of the real space projectors (new method)

 maximal supplied QI-value         = 24.76
 optimisation between [QCUT,QGAM] = [ 11.39, 22.77] = [ 36.31,145.25] Ry 
 Optimized for a Real-space Cutoff    1.20 Angstroem

   l    n(q)    QCUT    max X(q) W(low)/X(q) W(high)/X(q)  e(spline) 
   0      8    11.387    20.381    0.89E-04    0.31E-03    0.27E-06
   0      8    11.387    15.268    0.93E-04    0.32E-03    0.29E-06
   1      8    11.387     5.964    0.53E-04    0.28E-03    0.29E-06
   1      8    11.387     5.382    0.37E-04    0.22E-03    0.26E-06
 Optimization of the real space projectors (new method)

 maximal supplied QI-value         = 24.76
 optimisation between [QCUT,QGAM] = [ 11.39, 22.77] = [ 36.31,145.25] Ry 
 Optimized for a Real-space Cutoff    1.20 Angstroem

   l    n(q)    QCUT    max X(q) W(low)/X(q) W(high)/X(q)  e(spline) 
   0      8    11.387    14.049    0.69E-04    0.23E-03    0.18E-06
   0      8    11.387     8.945    0.88E-04    0.30E-03    0.26E-06
   1      8    11.387     7.086    0.62E-04    0.27E-03    0.27E-06
   1      8    11.387     6.747    0.46E-04    0.23E-03    0.25E-06

 ----------------------------------------------------------------------------- 
|                                                                             |
|  ADVICE TO THIS USER RUNNING 'VASP/VAMP'   (HEAR YOUR MASTER'S VOICE ...):  |
|                                                                             |
|      You enforced a specific xc-type in the INCAR file,                     |
|      a different type was found on the POTCAR file                          |
|          I HOPE YOU KNOW, WHAT YOU ARE  DOING                               |
|                                                                             |
 ----------------------------------------------------------------------------- 

  PAW_PBE Li_sv 10Sep2004               :
 energy of atom  1       EATOM= -202.7858
 kinetic energy error for atom=    0.0143 (will be added to EATOM!!)
  PAW_PBE Ti_pv 07Sep2000               :
 energy of atom  2       EATOM=-1042.5995
 kinetic energy error for atom=    0.0024 (will be added to EATOM!!)
  PAW_PBE O 08Apr2002                   :
 energy of atom  3       EATOM= -432.3788
 kinetic energy error for atom=    0.0224 (will be added to EATOM!!)
  PAW_PBE F 08Apr2002                   :
 energy of atom  4       EATOM= -659.6475
 kinetic energy error for atom=    0.0354 (will be added to EATOM!!)
 
 
 POSCAR: config 08                               
  positions in direct lattice
  velocities in cartesian coordinates
 exchange correlation table for  LEXCH =       14
   RHO(1)=    0.500       N(1)  =     2000
   RHO(2)=  100.500       N(2)  =     4000

 VTST: version 3.2, (02/03/18)

 CHAIN: initializing optimizer
 
 OPT: Using VASP QUASI-newton optimizer
 CHAIN: Read ICHAIN            0
 
 POSCAR: config 08                               
  positions in direct lattice
  velocities in cartesian coordinates
 


--------------------------------------------------------------------------------------------------------


 ion  position               nearest neighbor table
   1  0.127  0.375  0.947- 183 1.89 245 1.97 117 1.98  89 1.99   4 2.75
   2  0.995  0.994  0.994- 118 1.85  68 1.88 103 1.89 212 2.02 171 2.03 130 2.05
   3  1.000  0.992  0.493- 119 1.81  67 1.82 172 1.95 193 1.96 131 2.01 213 2.08
   4  0.004  0.495  0.997- 117 1.81  89 1.90 138 1.94 132 1.97 194 1.99 214 2.02   1 2.75
   5  0.994  0.502  0.507-  66 1.83 104 1.84 215 1.93 223 1.99 173 2.01 137 2.03
   6  0.494  0.994  1.000- 101 1.83 121 1.85 140 1.95 133 1.96 216 2.01 174 2.02
   7  0.501  0.008  0.500- 112 1.77 191 1.91 134 1.92 139 1.92 175 1.93 225 2.02
   8  0.505  0.496  0.995-  90 1.87  70 1.88 120 1.88 135 2.04 217 2.04 192 2.04
   9  0.492  0.499  0.495- 102 1.81  69 1.86 224 1.97 218 1.98 136 2.01 176 2.06
  10  0.006  0.003  0.256-  91 1.84  67 1.86 219 1.94 227 1.97 130 2.00 197 2.05
  11  0.001  0.008  0.756-  68 1.80 113 1.84 177 1.95 198 1.98 228 2.04 131 2.06
  12  0.994  0.494  0.251- 107 1.82 122 1.85 137 1.93 132 1.98 220 2.01 178 2.03
  13  0.993  0.500  0.741- 108 1.82  66 1.82 226 1.93 221 1.96 138 2.02 179 2.07
  14  0.506  0.009  0.250- 114 1.81  92 1.84 133 1.93 139 1.97 195 2.00 231 2.06
  15  0.493  0.005  0.752- 105 1.81 115 1.83 140 1.93 134 2.00 232 2.01 180 2.03
  16  0.493  0.497  0.257-  69 1.82 106 1.85 229 1.95 222 2.00 135 2.02 181 2.04
  17  0.501  0.504  0.758-  70 1.80 116 1.87 182 1.95 196 1.97 230 2.03 136 2.07
  18  0.995  0.251  0.001- 110 1.95 117 1.96 212 1.98 141 2.02 146 2.03 183 2.11
  19  0.998  0.248  0.491-  74 1.77 213 1.91 202 1.93 184 1.94 223 1.95 142 2.02
  20  0.998  0.757  0.006- 118 1.81  71 1.85 203 1.94 185 1.98 214 2.04 148 2.05
  21  0.998  0.757  0.506- 119 1.83  72 1.83 204 1.94 186 1.96 215 2.02 147 2.02
  22  0.498  0.258  0.001- 120 1.80 109 1.86 150 1.96 187 1.96 143 1.97 216 2.07
  23  0.508  0.245  0.499-  93 1.80 112 1.90 144 1.92 149 1.94 224 1.97 199 2.00
  24  0.507  0.756  0.999-  94 1.82 121 1.83 152 1.94 145 1.99 217 2.02 200 2.02
  25  0.507  0.753  0.509-  73 1.79  95 1.83 225 1.96 218 1.96 201 2.01 151 2.07
  26  1.000  0.258  0.255- 122 1.80  74 1.89 141 1.93 209 1.95 188 1.97 219 2.03
  27  0.006  0.242  0.746- 113 1.80  96 1.85 146 1.92 142 1.96 210 2.05 226 2.06
  28  0.007  0.749  0.243-  71 1.82  97 1.84 220 1.94 227 1.97 147 2.04 211 2.06
  29  0.993  0.751  0.743- 111 1.83  72 1.84 228 1.93 221 1.98 148 2.02 189 2.02
  30  0.509  0.242  0.252-  98 1.80 114 1.83 143 1.93 149 1.97 229 2.01 205 2.04
  31  0.507  0.243  0.750-  99 1.83 115 1.85 150 1.93 144 1.97 206 2.02 230 2.02
  32  0.507  0.752  0.252- 100 1.79 151 1.92 231 1.93 145 1.94 222 1.94 207 2.00
  33  0.502  0.742  0.743- 116 1.81  73 1.84 190 1.93 208 1.97 152 2.02 232 2.06
  34  0.256  0.999  0.006-  75 1.84 101 1.85 246 1.93 233 1.96 171 2.01 157 2.04
  35  0.250  0.994  0.507- 128 1.83  76 1.84 172 1.94 191 1.98 234 2.02 156 2.03
  36  0.246  0.511  0.998- 123 1.79  89 1.86 159 1.94 153 1.97 192 1.98 245 2.10
  37  0.254  0.494  0.506-  77 1.86 102 1.88 127 1.88 173 2.03 235 2.04 158 2.05
  38  0.757  0.000  0.994- 103 1.79  81 1.87 236 1.94 249 1.96 154 2.05 174 2.05
  39  0.750  0.007  0.494-  80 1.83 124 1.83 193 1.93 175 1.99 155 1.99 250 2.03
  40  0.742  0.500  0.004-  90 1.80  78 1.87 247 1.94 237 1.95 161 2.03 194 2.06
  41  0.755  0.498  0.505-  79 1.84 104 1.85 248 1.95 238 1.98 176 2.02 160 2.02
  42  0.245  0.003  0.244-  75 1.84  91 1.84 239 1.94 252 1.97 156 2.03 195 2.05
  43  0.258  0.998  0.744- 105 1.84  76 1.84 253 1.93 240 1.97 177 2.02 157 2.02
  44  0.255  0.493  0.251- 129 1.83 106 1.83 158 1.93 153 1.98 178 2.03 241 2.03
  45  0.247  0.506  0.741-  77 1.79 125 1.83 179 1.96 196 1.97 251 2.02 159 2.07
  46  0.744  0.001  0.255-  92 1.85  80 1.86 242 1.95 256 1.95 154 1.99 197 2.00
  47  0.748  0.006  0.756-  81 1.82 126 1.83 180 1.95 198 1.97 257 2.04 155 2.06
  48  0.756  0.499  0.242-  78 1.81 107 1.85 254 1.95 243 1.95 181 2.02 160 2.05
  49  0.757  0.498  0.742- 108 1.83  79 1.84 255 1.93 244 1.98 182 2.03 161 2.04
  50  0.261  0.249  0.007- 109 1.80  82 1.85 233 1.95 245 1.98 168 2.04 183 2.05
  51  0.253  0.257  0.505- 127 1.81  83 1.85 199 1.96 184 2.00 167 2.03 234 2.04
  52  0.252  0.745  0.993-  86 1.82 123 1.83 200 1.93 185 1.95 246 2.00 162 2.04
  53  0.252  0.755  0.493-  85 1.83 128 1.86 201 1.95 186 1.97 235 2.00 163 2.05
  54  0.757  0.250  0.007- 110 1.74  84 1.90 236 1.95 247 1.96 170 2.04 187 2.06
  55  0.743  0.242  0.497- 124 1.82  93 1.85 169 1.92 164 1.96 248 2.02 202 2.03
  56  0.742  0.749  0.994-  94 1.82  88 1.83 237 1.94 249 1.95 203 2.02 165 2.04
  57  0.742  0.752  0.494-  95 1.81  87 1.86 250 1.94 238 1.96 166 2.01 204 2.03
  58  0.251  0.258  0.244- 129 1.82  82 1.84 205 1.95 188 1.99 167 2.02 239 2.03
  59  0.244  0.251  0.743-  83 1.83  96 1.84 251 1.95 240 1.97 168 2.04 206 2.04
  60  0.244  0.748  0.256-  97 1.83  85 1.84 241 1.94 252 1.98 162 2.02 207 2.06
  61  0.248  0.742  0.756- 125 1.81  86 1.85 189 1.93 208 1.97 163 2.03 253 2.04
  62  0.742  0.251  0.242-  84 1.77  98 1.85 254 1.94 242 1.95 209 2.04 169 2.08
  63  0.744  0.242  0.750- 126 1.82  99 1.84 170 1.92 164 2.00 210 2.01 255 2.05
  64  0.745  0.750  0.257-  87 1.81 100 1.90 243 1.94 256 1.95 211 1.98 165 2.02
  65  0.758  0.750  0.757- 111 1.82  88 1.84 257 1.93 244 1.97 190 2.03 166 2.05
  66  0.011  0.500  0.624-  13 1.82   5 1.83
  67  0.995  0.007  0.376-   3 1.82  10 1.86
  68  0.999  0.004  0.872-  11 1.80   2 1.88
  69  0.497  0.493  0.375-  16 1.82   9 1.86
  70  0.492  0.498  0.874-  17 1.80   8 1.88
  71  0.999  0.747  0.126-  28 1.82  20 1.85
  72  0.001  0.748  0.624-  21 1.83  29 1.84
  73  0.501  0.755  0.625-  25 1.79  33 1.84
  74  0.992  0.244  0.377-  19 1.77  26 1.89
  75  0.255  0.004  0.125-  42 1.84  34 1.84
  76  0.254  0.004  0.625-  35 1.84  43 1.84
  77  0.236  0.495  0.626-  45 1.79  37 1.86
  78  0.749  0.492  0.125-  48 1.81  40 1.87
  79  0.744  0.494  0.624-  49 1.84  41 1.84
  80  0.751  0.998  0.376-  39 1.83  46 1.86
  81  0.746  0.997  0.873-  47 1.82  38 1.87
  82  0.244  0.250  0.125-  58 1.84  50 1.85
  83  0.251  0.250  0.625-  59 1.83  51 1.85
  84  0.736  0.259  0.128-  62 1.77  54 1.90
  85  0.255  0.746  0.374-  53 1.83  60 1.84
  86  0.251  0.753  0.875-  52 1.82  61 1.85
  87  0.752  0.752  0.374-  64 1.81  57 1.86
  88  0.748  0.753  0.875-  56 1.83  65 1.84
  89  0.127  0.498  0.985-  36 1.86   4 1.90   1 1.99
  90  0.626  0.507  0.996-  40 1.80   8 1.87
  91  0.125  0.004  0.252-  10 1.84  42 1.84
  92  0.625  0.002  0.250-  14 1.84  46 1.85
  93  0.624  0.256  0.493-  23 1.80  55 1.85
  94  0.625  0.742  0.004-  56 1.82  24 1.82
  95  0.624  0.762  0.496-  57 1.81  25 1.83
  96  0.125  0.254  0.752-  59 1.84  27 1.85
  97  0.125  0.752  0.252-  60 1.83  28 1.84
  98  0.625  0.245  0.267-  30 1.80  62 1.85
  99  0.625  0.253  0.747-  31 1.83  63 1.84
 100  0.623  0.754  0.251-  32 1.79  64 1.90
 101  0.376  0.001  0.992-   6 1.83  34 1.85
 102  0.375  0.505  0.506-   9 1.81  37 1.88
 103  0.873  0.004  0.000-  38 1.79   2 1.89
 104  0.875  0.501  0.502-   5 1.84  41 1.85
 105  0.376  0.997  0.757-  15 1.81  43 1.84
 106  0.374  0.496  0.246-  44 1.83  16 1.85
 107  0.876  0.498  0.249-  12 1.82  48 1.85
 108  0.875  0.510  0.742-  13 1.82  49 1.83
 109  0.378  0.246  0.007-  50 1.80  22 1.86
 110  0.869  0.245  0.011-  54 1.74  18 1.95
 111  0.875  0.741  0.750-  65 1.82  29 1.83
 112  0.510  0.122  0.496-   7 1.77  23 1.90
 113  0.998  0.126  0.739-  27 1.80  11 1.84
 114  0.494  0.125  0.262-  14 1.81  30 1.83
 115  0.502  0.123  0.746-  15 1.83  31 1.85
 116  0.503  0.625  0.748-  33 1.81  17 1.87
 117  0.007  0.378  0.993-   4 1.81  18 1.96   1 1.98
 118  0.000  0.874  0.999-  20 1.81   2 1.85
 119  0.998  0.875  0.496-   3 1.81  21 1.83
 120  0.502  0.374  0.007-  22 1.80   8 1.88
 121  0.503  0.875  0.003-  24 1.83   6 1.85
 122  0.007  0.375  0.251-  26 1.80  12 1.85
 123  0.255  0.627  0.004-  36 1.79  52 1.83
 124  0.743  0.125  0.504-  55 1.82  39 1.83
 125  0.245  0.625  0.750-  61 1.81  45 1.83
 126  0.750  0.124  0.745-  63 1.82  47 1.83
 127  0.251  0.373  0.494-  51 1.81  37 1.88
 128  0.251  0.876  0.500-  35 1.83  53 1.86
 129  0.241  0.375  0.256-  58 1.82  44 1.83
 130  0.000  1.000  0.127-  10 2.00   2 2.05
 131  0.006  0.995  0.623-   3 2.01  11 2.06
 132  0.005  0.506  0.124-   4 1.97  12 1.98
 133  0.493  0.007  0.126-  14 1.93   6 1.96
 134  0.497  0.993  0.623-   7 1.92  15 2.00
 135  0.504  0.508  0.127-  16 2.02   8 2.04
 136  0.510  0.500  0.624-   9 2.01  17 2.07
 137  0.001  0.499  0.376-  12 1.93   5 2.03
 138  0.991  0.504  0.872-   4 1.94  13 2.02
 139  0.504  0.990  0.377-   7 1.92  14 1.97
 140  0.516  0.002  0.875-  15 1.93   6 1.95
 141  0.013  0.249  0.131-  26 1.93  18 2.02
 142  0.002  0.262  0.621-  27 1.96  19 2.02
 143  0.513  0.239  0.127-  30 1.93  22 1.97
 144  0.496  0.248  0.622-  23 1.92  31 1.97
 145  0.496  0.746  0.127-  32 1.94  24 1.99
 146  0.990  0.246  0.870-  27 1.92  18 2.03
 147  0.994  0.749  0.375-  21 2.02  28 2.04
 148  0.002  0.749  0.874-  29 2.02  20 2.05
 149  0.488  0.263  0.376-  23 1.94  30 1.97
 150  0.498  0.251  0.874-  31 1.93  22 1.96
 151  0.493  0.754  0.376-  32 1.92  25 2.07
 152  0.499  0.750  0.874-  24 1.94  33 2.02
 153  0.241  0.493  0.124-  36 1.97  44 1.98
 154  0.749  0.004  0.126-  46 1.99  38 2.05
 155  0.745  0.996  0.623-  39 1.99  47 2.06
 156  0.253  0.001  0.376-  35 2.03  42 2.03
 157  0.243  0.994  0.874-  43 2.02  34 2.04
 158  0.250  0.512  0.375-  44 1.93  37 2.05
 159  0.265  0.499  0.874-  36 1.94  45 2.07
 160  0.748  0.508  0.374-  41 2.02  48 2.05
 161  0.756  0.505  0.874-  40 2.03  49 2.04
 162  0.252  0.755  0.125-  60 2.02  52 2.04
 163  0.249  0.751  0.625-  61 2.03  53 2.05
 164  0.749  0.261  0.622-  55 1.96  63 2.00
 165  0.753  0.747  0.126-  64 2.02  56 2.04
 166  0.748  0.748  0.624-  57 2.01  65 2.05
 167  0.256  0.244  0.374-  58 2.02  51 2.03
 168  0.256  0.252  0.875-  59 2.04  50 2.04
 169  0.765  0.243  0.375-  55 1.92  62 2.08
 170  0.753  0.245  0.875-  63 1.92  54 2.04
 171  0.126  0.998  0.002-  34 2.01   2 2.03
 172  0.125  0.006  0.497-  35 1.94   3 1.95
 173  0.124  0.502  0.490-   5 2.01  37 2.03
 174  0.625  0.998  0.008-   6 2.02  38 2.05
 175  0.624  0.983  0.502-   7 1.93  39 1.99
 176  0.625  0.493  0.495-  41 2.02   9 2.06
 177  0.127  0.999  0.748-  11 1.95  43 2.02
 178  0.124  0.509  0.251-  12 2.03  44 2.03
 179  0.124  0.490  0.767-  45 1.96  13 2.07
 180  0.624  0.994  0.741-  47 1.95  15 2.03
 181  0.625  0.499  0.251-  48 2.02  16 2.04
 182  0.626  0.492  0.758-  17 1.95  49 2.03
 183  0.130  0.258  0.985-   1 1.89  50 2.05  18 2.11
 184  0.124  0.245  0.496-  19 1.94  51 2.00
 185  0.125  0.747  0.001-  52 1.95  20 1.98
 186  0.124  0.749  0.495-  21 1.96  53 1.97
 187  0.624  0.250  0.991-  22 1.96  54 2.06
 188  0.125  0.237  0.261-  26 1.97  58 1.99
 189  0.123  0.756  0.751-  61 1.93  29 2.02
 190  0.626  0.755  0.749-  33 1.93  65 2.03
 191  0.377  0.007  0.496-   7 1.91  35 1.98
 192  0.373  0.495  0.011-  36 1.98   8 2.04
 193  0.875  0.006  0.510-  39 1.93   3 1.96
 194  0.876  0.498  0.003-   4 1.99  40 2.06
 195  0.377  0.995  0.257-  14 2.00  42 2.05
 196  0.375  0.500  0.737-  45 1.97  17 1.97
 197  0.874  0.998  0.246-  46 2.00  10 2.05
 198  0.874  0.995  0.741-  47 1.97  11 1.98
 199  0.379  0.242  0.499-  51 1.96  23 2.00
 200  0.376  0.757  0.001-  52 1.93  24 2.02
 201  0.377  0.743  0.503-  53 1.95  25 2.01
 202  0.874  0.251  0.508-  19 1.93  55 2.03
 203  0.872  0.752  0.998-  20 1.94  56 2.02
 204  0.872  0.744  0.503-  21 1.94  57 2.03
 205  0.378  0.258  0.244-  58 1.95  30 2.04
 206  0.376  0.249  0.750-  31 2.02  59 2.04
 207  0.377  0.749  0.247-  32 2.00  60 2.06
 208  0.375  0.753  0.749-  33 1.97  61 1.97
 209  0.874  0.257  0.241-  26 1.95  62 2.04
 210  0.874  0.253  0.741-  63 2.01  27 2.05
 211  0.873  0.747  0.249-  64 1.98  28 2.06
 212  0.009  0.124  0.004-  18 1.98   2 2.02
 213  0.997  0.126  0.512-  19 1.91   3 2.08
 214  0.997  0.626  0.996-   4 2.02  20 2.04
 215  0.001  0.626  0.494-   5 1.93  21 2.02
 216  0.506  0.124  0.998-   6 2.01  22 2.07
 217  0.489  0.627  0.999-  24 2.02   8 2.04
 218  0.508  0.627  0.498-  25 1.96   9 1.98
 219  0.991  0.127  0.245-  10 1.94  26 2.03
 220  0.999  0.624  0.256-  28 1.94  12 2.01
 221  0.014  0.625  0.752-  13 1.96  29 1.98
 222  0.501  0.626  0.256-  32 1.94  16 2.00
 223  0.004  0.374  0.495-  19 1.95   5 1.99
 224  0.493  0.372  0.507-   9 1.97  23 1.97
 225  0.487  0.878  0.497-  25 1.96   7 2.02
 226  0.995  0.375  0.754-  13 1.93  27 2.06
 227  0.996  0.876  0.253-  10 1.97  28 1.97
 228  0.998  0.876  0.749-  29 1.93  11 2.04
 229  0.505  0.372  0.239-  16 1.95  30 2.01
 230  0.495  0.373  0.745-  31 2.02  17 2.03
 231  0.496  0.876  0.246-  32 1.93  14 2.06
 232  0.501  0.875  0.756-  15 2.01  33 2.06
 233  0.243  0.125  0.992-  50 1.95  34 1.96
 234  0.250  0.125  0.497-  35 2.02  51 2.04
 235  0.246  0.626  0.505-  53 2.00  37 2.04
 236  0.738  0.125  0.001-  38 1.94  54 1.95
 237  0.761  0.625  0.002-  56 1.94  40 1.95
 238  0.743  0.625  0.501-  57 1.96  41 1.98
 239  0.261  0.127  0.253-  42 1.94  58 2.03
 240  0.250  0.125  0.758-  43 1.97  59 1.97
 241  0.252  0.624  0.239-  60 1.94  44 2.03
 242  0.759  0.126  0.249-  46 1.95  62 1.95
 243  0.746  0.625  0.247-  64 1.94  48 1.95
 244  0.737  0.625  0.748-  65 1.97  49 1.98
 245  0.246  0.375  0.992-   1 1.97  50 1.98  36 2.10
 246  0.247  0.874  0.004-  34 1.93  52 2.00
 247  0.748  0.375  0.988-  40 1.94  54 1.96
 248  0.754  0.373  0.488-  41 1.95  55 2.02
 249  0.747  0.874  0.009-  56 1.95  38 1.96
 250  0.762  0.876  0.504-  57 1.94  39 2.03
 251  0.255  0.376  0.757-  59 1.95  45 2.02
 252  0.254  0.876  0.251-  42 1.97  60 1.98
 253  0.248  0.873  0.745-  43 1.93  61 2.04
 254  0.747  0.375  0.266-  62 1.94  48 1.95
 255  0.756  0.374  0.757-  49 1.93  63 2.05
 256  0.754  0.875  0.242-  64 1.95  46 1.95
 257  0.753  0.875  0.743-  65 1.93  47 2.04
 

IMPORTANT INFORMATION: All symmetrisations will be switched off!
NOSYMM: (Re-)initialisation of all symmetry stuff for point group C_1.

 
 
 KPOINTS: Title                                   

Automatic generation of k-mesh.
Space group operators:
 irot       det(A)        alpha          n_x          n_y          n_z        tau_x        tau_y        tau_z
    1     1.000000     0.000001     1.000000     0.000000     0.000000     0.000000     0.000000     0.000000
 
 Subroutine IBZKPT returns following result:
 ===========================================
 
 Found      4 irreducible k-points:
 
 Following reciprocal coordinates:
            Coordinates               Weight
  0.250000  0.250000  0.250000      2.000000
 -0.250000  0.250000  0.250000      2.000000
  0.250000 -0.250000  0.250000      2.000000
 -0.250000 -0.250000  0.250000      2.000000
 
 Following cartesian coordinates:
            Coordinates               Weight
  0.016206  0.016206  0.016206      2.000000
 -0.016206  0.016206  0.016206      2.000000
  0.016206 -0.016206  0.016206      2.000000
 -0.016206 -0.016206  0.016206      2.000000
 


--------------------------------------------------------------------------------------------------------




 Dimension of arrays:
   k-points           NKPTS =      4   k-points in BZ     NKDIM =      4   number of bands    NBANDS=   1164
   number of dos      NEDOS =   3001   number of ions     NIONS =    257
   non local maximal  LDIM  =      6   non local SUM 2l+1 LMDIM =     18
   total plane-waves  NPLWV = ******
   max r-space proj   IRMAX =   7595   max aug-charges    IRDMAX= 146383
   dimension x,y,z NGX =   120 NGY =  120 NGZ =  120
   dimension x,y,z NGXF=   240 NGYF=  240 NGZF=  240
   support grid    NGXF=   480 NGYF=  480 NGZF=  480
   ions per type =               1  64  64 128
   NGX,Y,Z   is equivalent  to a cutoff of  12.93, 12.93, 12.93 a.u.
   NGXF,Y,Z  is equivalent  to a cutoff of  25.86, 25.86, 25.86 a.u.

 SYSTEM =  LTO                                     
 POSCAR =  config 08                               

 Startparameter for this run:
   NWRITE =      2    write-flag & timer
   PREC   = accura    normal or accurate (medium, high low for compatibility)
   ISTART =      1    job   : 0-new  1-cont  2-samecut
   ICHARG =      0    charge: 1-file 2-atom 10-const
   ISPIN  =      2    spin polarized calculation?
   LNONCOLLINEAR =      F non collinear calculations
   LSORBIT =      F    spin-orbit coupling
   INIWAV =      1    electr: 0-lowe 1-rand  2-diag
   LASPH  =      T    aspherical Exc in radial PAW
   METAGGA=      F    non-selfconsistent MetaGGA calc.

 Electronic Relaxation 1
   ENCUT  =  500.0 eV  36.75 Ry    6.06 a.u.  28.13 28.13 28.13*2*pi/ulx,y,z
   ENINI  =  500.0     initial cutoff
   ENAUG  =  628.9 eV  augmentation charge cutoff
   NELM   =     60;   NELMIN=  2; NELMDL=  0     # of ELM steps 
   EDIFF  = 0.1E-05   stopping-criterion for ELM
   LREAL  =      T    real-space projection
   NLSPLINE    = F    spline interpolate recip. space projectors
   LCOMPAT=      F    compatible to vasp.4.4
   GGA_COMPAT  = T    GGA compatible to vasp.4.4-vasp.4.6
   LMAXPAW     = -100 max onsite density
   LMAXMIX     =    4 max onsite mixed and CHGCAR
   VOSKOWN=      0    Vosko Wilk Nusair interpolation
   ROPT   =   -0.00010  -0.00010  -0.00010  -0.00010
 Ionic relaxation
   EDIFFG = -.5E-01   stopping-criterion for IOM
   NSW    =    100    number of steps for IOM
   NBLOCK =      1;   KBLOCK =    100    inner block; outer block 
   IBRION =      1    ionic relax: 0-MD 1-quasi-New 2-CG
   NFREE  =      0    steps in history (QN), initial steepest desc. (CG)
   ISIF   =      2    stress and relaxation
   IWAVPR =     11    prediction:  0-non 1-charg 2-wave 3-comb
   ISYM   =      0    0-nonsym 1-usesym 2-fastsym
   LCORR  =      T    Harris-Foulkes like correction to forces

   POTIM  = 0.5000    time-step for ionic-motion
   TEIN   =    0.0    initial temperature
   TEBEG  =    0.0;   TEEND  =   0.0 temperature during run
   SMASS  =  -3.00    Nose mass-parameter (am)
   estimated Nose-frequenzy (Omega)   =  0.10E-29 period in steps =****** mass=  -0.544E-26a.u.
   SCALEE = 1.0000    scale energy and forces
   NPACO  =    256;   APACO  = 16.0  distance and # of slots for P.C.
   PSTRESS=    0.0 pullay stress

  Mass of Ions in am
   POMASS =   7.01 47.88 16.00 19.00
  Ionic Valenz
   ZVAL   =   3.00 10.00  6.00  7.00
  Atomic Wigner-Seitz radii
   RWIGS  =  -1.00 -1.00 -1.00 -1.00
  virtual crystal weights 
   VCA    =   1.00  1.00  1.00  1.00
   NELECT =    1923.0000    total number of electrons
   NUPDOWN=       1.0000    fix difference up-down

 DOS related values:
   EMIN   =  10.00;   EMAX   =-10.00  energy-range for DOS
   EFERMI =   0.00
   ISMEAR =     0;   SIGMA  =   0.01  broadening in eV -4-tet -1-fermi 0-gaus

 Electronic relaxation 2 (details)
   IALGO  =     38    algorithm
   LDIAG  =      T    sub-space diagonalisation (order eigenvalues)
   LSUBROT=      F    optimize rotation matrix (better conditioning)
   TURBO    =      0    0=normal 1=particle mesh
   IRESTART =      0    0=no restart 2=restart with 2 vectors
   NREBOOT  =      0    no. of reboots
   NMIN     =      0    reboot dimension
   EREF     =   0.00    reference energy to select bands
   IMIX   =      4    mixing-type and parameters
     AMIX     =   0.40;   BMIX     =  1.00
     AMIX_MAG =   1.60;   BMIX_MAG =  1.00
     AMIN     =   0.10
     WC   =   100.;   INIMIX=   1;  MIXPRE=   1;  MAXMIX= -45

 Intra band minimization:
   WEIMIN = 0.0010     energy-eigenvalue tresh-hold
   EBREAK =  0.21E-09  absolut break condition
   DEPER  =   0.30     relativ break condition  

   TIME   =   0.40     timestep for ELM

  volume/ion in A,a.u.               =      14.28        96.39
  Fermi-wavevector in a.u.,A,eV,Ry     =   1.319690  2.493853 23.695660  1.741582
  Thomas-Fermi vector in A             =   2.449570
 
 Write flags
   LWAVE        =      T    write WAVECAR
   LDOWNSAMPLE  =      F    k-point downsampling of WAVECAR
   LCHARG       =      T    write CHGCAR
   LVTOT        =      F    write LOCPOT, total local potential
   LVHAR        =      F    write LOCPOT, Hartree potential only
   LELF         =      F    write electronic localiz. function (ELF)
   LORBIT       =     11    0 simple, 1 ext, 2 COOP (PROOUT), +10 PAW based schemes


 Dipole corrections
   LMONO  =      F    monopole corrections only (constant potential shift)
   LDIPOL =      F    correct potential (dipole corrections)
   IDIPOL =      0    1-x, 2-y, 3-z, 4-all directions 
   EPSILON=  1.0000000 bulk dielectric constant

 LDA+U is selected, type is set to LDAUTYPE =  2
   angular momentum for each species LDAUL =    -1    2   -1   -1
   U (eV)           for each species LDAUU =   0.0  4.2  0.0  0.0
   J (eV)           for each species LDAUJ =   0.0  0.0  0.0  0.0
 Exchange correlation treatment:
   GGA     =    PS    GGA type
   LEXCH   =    14    internal setting for exchange type
   VOSKOWN=      0    Vosko Wilk Nusair interpolation
   LHFCALC =     F    Hartree Fock is set to
   LHFONE  =     F    Hartree Fock one center treatment
   AEXX    =    0.0000 exact exchange contribution

 Linear response parameters
   LEPSILON=     F    determine dielectric tensor
   LRPA    =     F    only Hartree local field effects (RPA)
   LNABLA  =     F    use nabla operator in PAW spheres
   LVEL    =     F    velocity operator in full k-point grid
   LINTERFAST=   F  fast interpolation
   KINTER  =     0    interpolate to denser k-point grid
   CSHIFT  =0.1000    complex shift for real part using Kramers Kronig
   OMEGAMAX=  -1.0    maximum frequency
   DEG_THRESHOLD= 0.2000000E-02 threshold for treating states as degnerate
   RTIME   =   -0.100 relaxation time in fs
  (WPLASMAI=    0.000 imaginary part of plasma frequency in eV, 0.658/RTIME)
   DFIELD  = 0.0000000 0.0000000 0.0000000 field for delta impulse in time
 
 Orbital magnetization related:
   ORBITALMAG=     F  switch on orbital magnetization
   LCHIMAG   =     F  perturbation theory with respect to B field
   DQ        =  0.001000  dq finite difference perturbation B field
   LLRAUG    =     F  two centre corrections for induced B field



--------------------------------------------------------------------------------------------------------


 quasi-Newton-method for relaxation of ions
 charge density and potential will be updated during run
 spin polarized calculation
 Variant of blocked Davidson
 Davidson routine will perform the subspace rotation
 perform sub-space diagonalisation
    after iterative eigenvector-optimisation
 modified Broyden-mixing scheme, WC =      100.0
 initial mixing is a Kerker type mixing with AMIX =  0.4000 and BMIX =      1.0000
 Hartree-type preconditioning will be used
 using additional bands          202
 real space projection scheme for non local part
 use partial core corrections
 calculate Harris-corrections to forces 
   (improved forces if not selfconsistent)
 use gradient corrections 
 use of overlap-Matrix (Vanderbilt PP)
 Gauss-broadening in eV      SIGMA  =   0.01


--------------------------------------------------------------------------------------------------------


  energy-cutoff  :      500.00
  volume of cell :     3671.03
      direct lattice vectors                 reciprocal lattice vectors
    15.426331000  0.000000000  0.000000000     0.064824228  0.000000000  0.000000000
     0.000000000 15.426331000  0.000000000     0.000000000  0.064824228  0.000000000
     0.000000000  0.000000000 15.426331000     0.000000000  0.000000000  0.064824228

  length of vectors
    15.426331000 15.426331000 15.426331000     0.064824228  0.064824228  0.064824228


 
 old parameters found on file WAVECAR:
  energy-cutoff  :      500.00
  volume of cell :     3671.03
      direct lattice vectors                 reciprocal lattice vectors
    15.426331000  0.000000000  0.000000000     0.064824228  0.000000000  0.000000000
     0.000000000 15.426331000  0.000000000     0.000000000  0.064824228  0.000000000
     0.000000000  0.000000000 15.426331000     0.000000000  0.000000000  0.064824228

  length of vectors

 
 k-points in units of 2pi/SCALE and weight: Title                                   
   0.01620606  0.01620606  0.01620606       0.250
  -0.01620606  0.01620606  0.01620606       0.250
   0.01620606 -0.01620606  0.01620606       0.250
  -0.01620606 -0.01620606  0.01620606       0.250
 
 k-points in reciprocal lattice and weights: Title                                   
   0.25000000  0.25000000  0.25000000       0.250
  -0.25000000  0.25000000  0.25000000       0.250
   0.25000000 -0.25000000  0.25000000       0.250
  -0.25000000 -0.25000000  0.25000000       0.250
 
 position of ions in fractional coordinates (direct lattice) 
   0.12675269  0.37479745  0.94701729
   0.99474855  0.99399993  0.99388134
   0.99954053  0.99221131  0.49314681
   0.00443949  0.49503240  0.99659817
   0.99425118  0.50234873  0.50697453
   0.49410884  0.99441960  0.99954041
   0.50097273  0.00783171  0.49987086
   0.50467160  0.49587193  0.99547840
   0.49154047  0.49904885  0.49528033
   0.00625870  0.00318758  0.25593023
   0.00134307  0.00782065  0.75595101
   0.99388774  0.49379557  0.25123330
   0.99262316  0.49975309  0.74094565
   0.50564821  0.00900204  0.25042516
   0.49284975  0.00514770  0.75194088
   0.49284278  0.49685946  0.25683685
   0.50078720  0.50433854  0.75794265
   0.99511568  0.25127203  0.00116874
   0.99825898  0.24792094  0.49079808
   0.99795273  0.75726756  0.00611980
   0.99753736  0.75692151  0.50573420
   0.49758305  0.25827997  0.00135138
   0.50829321  0.24544753  0.49858225
   0.50733883  0.75641453  0.99911125
   0.50668589  0.75310123  0.50900317
   0.99961282  0.25835113  0.25476385
   0.00582035  0.24220839  0.74621893
   0.00669259  0.74880986  0.24325019
   0.99278314  0.75069091  0.74313380
   0.50906654  0.24248451  0.25200361
   0.50659631  0.24295770  0.74983211
   0.50669446  0.75173880  0.25194095
   0.50193978  0.74219273  0.74344563
   0.25635127  0.99867831  0.00612437
   0.24985517  0.99393065  0.50655155
   0.24636910  0.51116799  0.99756195
   0.25390287  0.49433380  0.50647852
   0.75681621  0.00039040  0.99392615
   0.75036313  0.00656499  0.49420809
   0.74177985  0.49977120  0.00443035
   0.75523053  0.49765839  0.50505093
   0.24451409  0.00276868  0.24393045
   0.25766396  0.99795155  0.74432648
   0.25524974  0.49255049  0.25130594
   0.24688243  0.50624938  0.74061718
   0.74431899  0.00068076  0.25545490
   0.74811711  0.00615841  0.75578377
   0.75568712  0.49888108  0.24223369
   0.75710925  0.49821096  0.74185209
   0.26112892  0.24853951  0.00688580
   0.25277711  0.25668707  0.50525056
   0.25189293  0.74493262  0.99322141
   0.25156471  0.75523619  0.49256481
   0.75664596  0.24990804  0.00688129
   0.74295806  0.24249416  0.49698347
   0.74187012  0.74920381  0.99394323
   0.74150426  0.75232423  0.49399322
   0.25112418  0.25807187  0.24397647
   0.24383439  0.25144555  0.74347502
   0.24379179  0.74830448  0.25550179
   0.24762113  0.74191390  0.75608549
   0.74198957  0.25125608  0.24176409
   0.74392513  0.24201752  0.75013486
   0.74547792  0.75027678  0.25657079
   0.75750952  0.75031297  0.75661636
   0.01136894  0.49999631  0.62418332
   0.99460895  0.00728524  0.37594491
   0.99873023  0.00412253  0.87225973
   0.49696556  0.49334692  0.37498671
   0.49158690  0.49793664  0.87439273
   0.99864799  0.74730530  0.12574467
   0.00136588  0.74766528  0.62405870
   0.50099384  0.75505282  0.62484596
   0.99171852  0.24429459  0.37652122
   0.25477523  0.00426687  0.12523783
   0.25406722  0.00407542  0.62528147
   0.23628125  0.49511194  0.62577395
   0.74854681  0.49200948  0.12503044
   0.74356193  0.49362610  0.62375214
   0.75094909  0.99842885  0.37593547
   0.74634641  0.99696506  0.87326452
   0.24351417  0.25040995  0.12527618
   0.25077638  0.24996216  0.62485556
   0.73582005  0.25850307  0.12767844
   0.25477605  0.74643233  0.37446208
   0.25086729  0.75293078  0.87528648
   0.75174799  0.75247806  0.37403699
   0.74756048  0.75292999  0.87526649
   0.12715325  0.49817965  0.98535739
   0.62568188  0.50707760  0.99567071
   0.12523332  0.00389391  0.25225706
   0.62471898  0.00153682  0.24974527
   0.62416199  0.25608434  0.49274447
   0.62458551  0.74188925  0.00385110
   0.62431446  0.76232837  0.49636471
   0.12491635  0.25351892  0.75247443
   0.12537602  0.75150734  0.25193076
   0.62484815  0.24486546  0.26668068
   0.62494023  0.25317779  0.74714190
   0.62273944  0.75437736  0.25055918
   0.37569469  0.00118496  0.99187893
   0.37500164  0.50474202  0.50617623
   0.87287016  0.00398798  0.00015651
   0.87532249  0.50062187  0.50181738
   0.37600941  0.99743430  0.75706311
   0.37375396  0.49589353  0.24575859
   0.87570939  0.49803005  0.24911201
   0.87521977  0.50980183  0.74192665
   0.37782544  0.24627211  0.00690126
   0.86910539  0.24503191  0.01053116
   0.87494409  0.74142460  0.74985800
   0.50983311  0.12225983  0.49617912
   0.99812947  0.12568475  0.73906211
   0.49390903  0.12512954  0.26217742
   0.50181612  0.12345446  0.74641544
   0.50270520  0.62525539  0.74846742
   0.00698463  0.37767510  0.99346015
   0.00005908  0.87413202  0.99924213
   0.99787231  0.87497918  0.49644630
   0.50204844  0.37443903  0.00703383
   0.50301934  0.87509036  0.00261226
   0.00743396  0.37462795  0.25097007
   0.25497151  0.62685100  0.00358649
   0.74273738  0.12480052  0.50359793
   0.24534406  0.62480788  0.75003292
   0.74999804  0.12442431  0.74462825
   0.25121247  0.37333265  0.49350964
   0.25136235  0.87565141  0.50009424
   0.24126252  0.37482457  0.25639643
   0.00023525  0.99960853  0.12662032
   0.00579067  0.99487740  0.62320829
   0.00507316  0.50574345  0.12415522
   0.49290931  0.00661681  0.12629905
   0.49669854  0.99282422  0.62308037
   0.50407007  0.50840470  0.12687155
   0.50961185  0.49962438  0.62433951
   0.00117431  0.49856290  0.37588651
   0.99105625  0.50400729  0.87167895
   0.50357991  0.99010153  0.37686370
   0.51560328  0.00173570  0.87508636
   0.01264871  0.24917969  0.13060696
   0.00247737  0.26209987  0.62063854
   0.51269411  0.23892738  0.12688216
   0.49613839  0.24788642  0.62249968
   0.49561936  0.74584282  0.12682411
   0.98976867  0.24612370  0.86959552
   0.99365152  0.74930757  0.37491936
   0.00235376  0.74914527  0.87369375
   0.48820560  0.26312931  0.37596495
   0.49801018  0.25123677  0.87441404
   0.49277490  0.75360582  0.37567687
   0.49943787  0.75014747  0.87406424
   0.24113692  0.49265246  0.12354532
   0.74925586  0.00428451  0.12634428
   0.74522872  0.99588678  0.62291097
   0.25277354  0.00120600  0.37551331
   0.24331493  0.99361373  0.87449086
   0.25038251  0.51193336  0.37477447
   0.26502295  0.49944486  0.87357653
   0.74847469  0.50763585  0.37448499
   0.75584979  0.50538286  0.87375666
   0.25225164  0.75543564  0.12494899
   0.24883408  0.75080346  0.62508947
   0.74874337  0.26116706  0.62220181
   0.75291716  0.74694384  0.12566291
   0.74765079  0.74751232  0.62428021
   0.25558869  0.24393117  0.37418378
   0.25649438  0.25191972  0.87492807
   0.76489207  0.24299921  0.37453874
   0.75254993  0.24538232  0.87450133
   0.12631768  0.99831310  0.00150874
   0.12483917  0.00628554  0.49683233
   0.12367778  0.50150801  0.48963443
   0.62473422  0.99848816  0.00846899
   0.62374473  0.98310798  0.50193633
   0.62497782  0.49330087  0.49540399
   0.12699395  0.99941791  0.74806127
   0.12438377  0.50852231  0.25078616
   0.12383088  0.49014460  0.76744161
   0.62351348  0.99357257  0.74107886
   0.62487836  0.49922236  0.25136921
   0.62639119  0.49197296  0.75779416
   0.13045351  0.25807545  0.98510432
   0.12372395  0.24459260  0.49577447
   0.12547807  0.74691018  0.00141113
   0.12406547  0.74860416  0.49521872
   0.62425486  0.25006994  0.99080593
   0.12516981  0.23667812  0.26093233
   0.12343097  0.75643859  0.75068510
   0.62640566  0.75536352  0.74944314
   0.37729482  0.00733803  0.49588804
   0.37325824  0.49452740  0.01060190
   0.87458654  0.00578941  0.50998039
   0.87557577  0.49771071  0.00256132
   0.37680037  0.99543157  0.25657781
   0.37457337  0.50030207  0.73696085
   0.87368282  0.99844105  0.24649681
   0.87419600  0.99528750  0.74110961
   0.37850071  0.24189693  0.49919575
   0.37641716  0.75688853  0.00094309
   0.37684483  0.74285145  0.50274480
   0.87403296  0.25125021  0.50783570
   0.87241025  0.75244350  0.99795770
   0.87227808  0.74358748  0.50313910
   0.37784752  0.25841379  0.24353423
   0.37606598  0.24884088  0.75008624
   0.37690987  0.74851663  0.24739823
   0.37487910  0.75303431  0.74942752
   0.87395964  0.25685276  0.24123841
   0.87356079  0.25298061  0.74148607
   0.87348246  0.74701257  0.24907030
   0.00944402  0.12375121  0.00376222
   0.99665028  0.12563929  0.51167985
   0.99695161  0.62572996  0.99598753
   0.00085569  0.62642037  0.49386641
   0.50558096  0.12412733  0.99760181
   0.48874450  0.62708797  0.99936130
   0.50839070  0.62657005  0.49770507
   0.99088624  0.12741790  0.24472874
   0.99883058  0.62362263  0.25564349
   0.01403402  0.62476140  0.75234892
   0.50131364  0.62605248  0.25578711
   0.00356860  0.37403567  0.49492326
   0.49301472  0.37193065  0.50728847
   0.48667145  0.87776943  0.49701606
   0.99467632  0.37533781  0.75386162
   0.99566025  0.87596679  0.25279742
   0.99778634  0.87565097  0.74898310
   0.50477943  0.37214429  0.23918482
   0.49540942  0.37343031  0.74495823
   0.49615759  0.87617250  0.24603451
   0.50141889  0.87495804  0.75557180
   0.24326738  0.12453912  0.99221395
   0.25004440  0.12451462  0.49663117
   0.24594721  0.62644450  0.50539437
   0.73830422  0.12473340  0.00099091
   0.76096012  0.62489678  0.00208360
   0.74289004  0.62546706  0.50130069
   0.26073482  0.12685709  0.25279829
   0.25036085  0.12455415  0.75799672
   0.25162399  0.62387367  0.23937274
   0.75870506  0.12596640  0.24873371
   0.74574835  0.62510356  0.24710074
   0.73748847  0.62460662  0.74776767
   0.24645080  0.37538665  0.99208599
   0.24694941  0.87414057  0.00416364
   0.74838255  0.37521242  0.98777375
   0.75394093  0.37258337  0.48798853
   0.74711057  0.87440065  0.00899117
   0.76184011  0.87609382  0.50403449
   0.25473754  0.37631091  0.75739833
   0.25354723  0.87588006  0.25086137
   0.24806178  0.87339781  0.74526297
   0.74739190  0.37480380  0.26557422
   0.75590753  0.37402818  0.75747536
   0.75393084  0.87528434  0.24220711
   0.75301088  0.87465965  0.74310835
 
 position of ions in cartesian coordinates  (Angst):
   1.95532893  5.78174944 14.60900225
  15.34532043 15.33377197 15.33194252
  15.41924310 15.30618016  7.60744592
   0.06848507  7.63653373 15.37385329
  15.33764782  7.74939784  7.82075698
   7.62228646 15.34024589 15.41924128
   7.72817122  0.12081462  7.71117330
   7.78523111  7.64948446 15.35657933
   7.58266598  7.69849279  7.64035828
   0.09654876  0.04917261  3.94806449
   0.02071869  0.12064388 11.66155050
  15.33204130  7.61745387  3.87560807
  15.31253336  7.70935654 11.43007284
   7.80029669  0.13886851  3.86314147
   7.60286339  0.07941008 11.59968888
   7.60275583  7.66471856  3.96205023
   7.72530904  7.78009327 11.69227425
  15.35098385  3.87620543  0.01802943
  15.39947353  3.82451045  7.57121367
  15.39474913 11.68186001  0.09440604
  15.38834149 11.67652176  7.80162319
   7.67588076  3.98431228  0.02084688
   7.84109935  3.78635491  7.69129485
   7.82637673 11.66870084 15.41262080
   7.81630432 11.61758890  7.85205141
  15.42035820  3.98541008  3.93007149
   0.08978660  3.73638678 11.51142023
   0.10324209 11.55138879  3.75245802
  15.31500138 11.58040641 11.46382796
   7.85302897  3.74064629  3.88749116
   7.81492231  3.74794593 11.56715827
   7.81643640 11.59657151  3.88652452
   7.74308926 11.44931078 11.46863837
   3.95455954 15.40594216  0.09447654
   3.85434853 15.33270313  7.81423195
   3.80057125  7.88544669 15.38872083
   3.91678979  7.62575683  7.81310530
  11.67489741  0.00602238 15.33263376
  11.57535004  0.10127377  7.62381756
  11.44294157  7.70963590  0.06834404
  11.65043613  7.67704300  7.79108280
   3.77195523  0.04271059  3.76295194
   3.97480946 15.39473098 11.48222671
   3.93756702  7.59824685  3.87672865
   3.80849012  7.80957053 11.42500575
  11.48211106  0.01050158  3.94073188
  11.54070211  0.09500162 11.65897053
  11.65747967  7.69590474  3.73677705
  11.67941796  7.68556712 11.44405589
   4.02826117  3.83405271  0.10622257
   3.89942339  3.95973966  7.79416232
   3.88578364 11.49157709 15.32176228
   3.88072045 11.65052345  7.59846779
  11.67227108  3.85516417  0.10615305
  11.46111702  3.74079515  7.66663157
  11.44433401 11.55746602 15.33289728
  11.43869023 11.60560262  7.62050298
   3.87392470  3.98110212  3.76366177
   3.76147001  3.87888229 11.46909174
   3.76081292 11.54359267  3.94145524
   3.81988548 11.44500936 11.66362504
  11.44617670  3.87595943  3.72953288
  11.47603531  3.73344234 11.57182864
  11.49998918 11.57401794  3.95794601
  11.68559258 11.57457627 11.67181449
   0.17538099  7.71310864  9.62885851
  15.34316686  0.11238458  5.79945069
  15.40674308  0.06359546 13.45576729
   7.66635524  7.61053296  5.78466915
   7.58338230  7.68133540 13.48867174
  15.40547445 11.52817897  1.93977895
   0.02107045 11.53373215  9.62693608
   7.72849676 11.64769473  9.63908056
  15.29857819  3.76856920  5.80834102
   3.93024704  0.06582221  1.93196025
   3.91932503  0.06286872  9.64579890
   3.64495283  7.63776064  9.65339601
  11.54733093  7.58990112  1.92876103
  11.47043244  7.61483963  9.62220691
  11.58438922 15.40209387  5.79930505
  11.51338669 15.37951299 13.47126753
   3.75653016  3.86290679  1.93255177
   3.86855941  3.85599894  9.63922875
  11.35100367  3.98775400  1.96960985
   3.93025972 11.51471216  5.77657606
   3.86996179 11.61495946 13.50245900
  11.59671334 11.60797564  5.77001844
  11.53211534 11.61494725 13.50215052
   1.96150814  7.68508413 15.20044929
   9.65197579  7.82234694 15.35954589
   1.93189068  0.06006875  3.89140089
   9.63712176  0.02370744  3.85265313
   9.62852939  3.95044173  7.60123933
   9.63506278 11.44462911  0.05940834
   9.63088151 11.75992982  7.65708637
   1.92700095  3.91086672 11.60791965
   1.93409192 11.59300095  3.88636731
   9.63911443  3.77737569  4.11390449
   9.64053482  3.90560439 11.52565822
   9.60658475 11.63727487  3.86520889
   5.79559068  0.01827961 15.30105267
   5.78489939  7.78631748  7.80844200
  13.46518400  0.06151994  0.00241436
  13.50301442  7.72275864  7.74120101
   5.80044565 15.38675167 11.67870610
   5.76565228  7.64981778  3.79115332
  13.50898290  7.68277646  3.84288436
  13.50142989  7.86437178 11.44520613
   5.82846035  3.79907511  0.10646116
  13.40710739  3.77994329  0.16245710
  13.49717716 11.43746135 11.56755771
   7.86485435  1.88602056  7.65422335
  15.39747565  1.93885459 11.40101679
   7.61920420  1.93028967  4.04443562
   7.74118160  1.90444939 11.51445170
   7.75489676  9.64539665 11.54610612
   0.10774717  5.82614105 15.32544516
   0.00091135 13.48464986 15.41463990
  15.39350853 13.49771850  7.65834495
   7.74476542  5.77622040  0.10850612
   7.75974277 13.49943353  0.04029764
   0.11467873  5.77913472  3.87154740
   3.93327491  9.67001103  0.05532641
  11.45771260  1.92521416  7.76866832
   3.78475861  9.63849324 11.57025607
  11.56971794  1.91941055 11.48688186
   3.87528670  5.75915306  7.61304311
   3.87759886 13.50808843  7.71461922
   3.72179544  5.78216796  3.95525616
   0.00362898 15.42029200  1.95328700
   0.08932883 15.34730806  9.61381736
   0.07826018  7.80176588  1.91525949
   7.60378221  0.10207308  1.94833098
   7.66223607 15.31563504  9.61184408
   7.77595169  7.84281924  1.95716259
   7.86144114  7.70737104  9.63126787
   0.01811531  7.69099633  5.79854976
  15.28836169  7.77498332 13.44680807
   7.76839038 15.27363388  5.81362419
   7.95386688  0.02677541 13.49937191
   0.19512313  3.84392838  2.01478621
   0.03821680  4.04323933  9.57417555
   7.90898902  3.68577283  1.95732627
   7.65359509  3.82397796  9.60288616
   7.64558828 11.50561827  1.95643072
  15.26849910  3.79678570 13.41466829
  15.32839726 11.55906657  5.78363015
   0.03630983 11.55656291 13.47788899
   7.53122122  4.05911977  5.79975969
   7.68246984  3.87566152 13.48900036
   7.60170878 11.62537284  5.79531575
   7.70449395 11.57202311 13.48360422
   3.71985793  7.59981999  1.90585102
  11.55826886  0.06609424  1.94902872
  11.49614486 15.36287908  9.60923088
   3.89936828  0.01860415  5.79279265
   3.75345661 15.32781427 13.49018551
   3.86248355  7.89725340  5.78139507
   4.08833180  7.70460177 13.47608072
  11.54621833  7.83095865  5.77692937
  11.65998898  7.79620327 13.47885940
   3.89131722 11.65360029  1.92750452
   3.83859693 11.58214268  9.64283706
  11.55036301  4.02884955  9.59829101
  11.61474932 11.52260295  1.93851771
  11.53350850 11.53137251  9.63035309
   3.94279575  3.76296292  5.77228290
   3.95676713  3.88619694 13.49693004
  11.79947831  3.74858619  5.77775856
  11.60908438  3.78534890 13.49034694
   1.94861841 15.40030828  0.02327438
   1.92581037  0.09696288  7.66429993
   1.90789440  7.73642857  7.55326276
   9.63735693 15.40300879  0.13064544
   9.62209260 15.16574908  7.74303597
   9.64111472  7.60982246  7.64226591
   1.95905071 15.41735149 11.53984071
   1.91878522  7.84463342  3.86871028
   1.91025615  7.56113277 11.83880833
   9.61852533 15.32717927 11.43212773
   9.63958046  7.70116939  3.87770469
   9.66291789  7.58933768 11.68998355
   2.01241902  3.98115726 15.19654525
   1.90860657  3.77316641  7.64798104
   1.93566625 11.52208362  0.02176854
   1.91387504 11.54821560  7.63940788
   9.62996204  3.85766173 15.28450020
   1.93091086  3.65107503  4.02522847
   1.90408701 11.66907209 11.58031675
   9.66314101 11.65248764 11.56115795
   5.82027476  0.11319884  7.64973302
   5.75800523  7.62874335  0.16354840
  13.49166146  0.08930940  7.86712625
  13.50692157  7.67785019  0.03951183
   5.81264730 15.35585693  3.95805426
   5.77829282  7.71782531 11.36860195
  13.47772038 15.40228211  3.80254141
  13.48563679 15.35363435 11.43260219
   5.83887717  3.73158211  7.70075888
   5.80673566 11.67601298  0.01454846
   5.81333316 11.45947240  7.75550766
  13.48312173  3.87586885  7.83404160
  13.45808929 11.60744256 15.39482581
  13.45605046 11.47082665  7.76159029
   5.82880091  3.98637660  3.75683969
   5.80131826  3.83870171 11.57107859
   5.81433643 11.54686531  3.81644696
   5.78300911 11.61655657 11.56091693
  13.48199072  3.96229563  3.72142353
  13.47583794  3.90256267 11.43840949
  13.47462948 11.52366320  3.84224090
   0.14568653  1.90902713  0.05803725
  15.37465716  1.93815325  7.89334277
  15.37930554  9.65271743 15.36443334
   0.01320011  9.66336803  7.61854672
   7.79925920  1.91482934 15.38933579
   7.53953447  9.67366657 15.41647824
   7.84260316  9.66567693  7.67776321
  15.28573916  1.96559071  3.77526648
  15.40829114  9.62020910  3.94364117
   0.21649346  9.63777622 11.60598344
   7.73343014  9.65769271  3.94585666
   0.05505036  5.76999811  7.63485001
   7.60540826  5.73752526  7.82559993
   7.50755488 13.54076183  7.66713418
  15.34420608  5.79008531 11.62931882
  15.35938458 13.51295370  3.89973674
  15.39218228 13.50808176 11.55406126
   7.78689454  5.74082102  3.68974419
   7.64234968  5.76065961 11.49197222
   7.65389127 13.51612705  3.79540972
   7.73505378 13.49739229 11.65570071
   3.75272317  1.92118164 15.30622085
   3.85726760  1.92080381  7.66119680
   3.79406300  9.66374016  7.79638091
  11.38932531  1.92417868  0.01528616
  11.73882272  9.63986464  0.03214225
  11.46006770  9.64866197  7.73323031
   4.02218161  1.95693949  3.89975016
   3.86214927  1.92141350 11.69310824
   3.88163498  9.62408174  3.69264315
  11.70403534  1.94319936  3.83704852
  11.50416083  9.64305439  3.81185777
  11.37674125  9.63538847 11.53531162
   3.80183160  5.79083868 15.30424688
   3.80952340 13.48478172  0.06422964
  11.54479693  5.78815092 15.23772483
  11.63054234  5.74759444  7.52787263
  11.52517492 13.48879383  0.13870078
  11.75239772 13.51491326  7.77540285
   3.92966562  5.80509668 11.68387730
   3.91130346 13.51161572  3.86987060
   3.82668313 13.47332366 11.49667325
  11.52951490  5.78184745  4.09683586
  11.66087980  5.76988250 11.68506567
  11.63038672 13.50242602  3.73636710
  11.61619513 13.49278921 11.46343541
 


--------------------------------------------------------------------------------------------------------


 k-point  1 :   0.2500 0.2500 0.2500  plane waves:   93161
 k-point  2 :  -0.2500 0.2500 0.2500  plane waves:   93161
 k-point  3 :   0.2500-0.2500 0.2500  plane waves:   93161
 k-point  4 :  -0.2500-0.2500 0.2500  plane waves:   93161

 maximum and minimum number of plane-waves per node :     11686    11606

 maximum number of plane-waves:     93161
 maximum index in each direction: 
   IXMAX=   28   IYMAX=   28   IZMAX=   27
   IXMIN=  -28   IYMIN=  -28   IZMIN=  -28


 real space projection operators:
  total allocation   :     105572.34 KBytes
  max/ min on nodes  :      13250.37      13154.45


 parallel 3D FFT for wavefunctions:
    minimum data exchange during FFTs selected (reduces bandwidth)
 parallel 3D FFT for charge:
    minimum data exchange during FFTs selected (reduces bandwidth)


 total amount of memory used by VASP MPI-rank0   291505. kBytes
=======================================================================

   base      :      30000. kBytes
   nonlr-proj:      49470. kBytes
   fftplans  :      27976. kBytes
   grid      :      34041. kBytes
   one-center:       1026. kBytes
   wavefun   :     148992. kBytes
 
     INWAV:  cpu time   51.4759: real time   51.9188
 Broyden mixing: mesh for mixing (old mesh)
   NGX = 57   NGY = 57   NGZ = 57
  (NGX  =240   NGY  =240   NGZ  =240)
  gives a total of 185193 points

 charge density for first step will be calculated from the start-wavefunctions


--------------------------------------------------------------------------------------------------------


 Maximum index for non-local projection operator          970
 Maximum index for augmentation-charges         3289 (set IRDMAX)


--------------------------------------------------------------------------------------------------------


 initial charge from wavefunction
 First call to EWALD:  gamma=   0.115
 Maximum number of real-space cells 3x 3x 3
 Maximum number of reciprocal cells 3x 3x 3

    FEWALD:  cpu time    0.0163: real time    0.0174


--------------------------------------- Iteration      1(   1)  ---------------------------------------


    POTLOK:  cpu time    0.2717: real time    0.3184
    SETDIJ:  cpu time    1.3672: real time    1.3948
     EDDAV:  cpu time  127.7558: real time  128.3329
       DOS:  cpu time    0.0029: real time    0.0029
    CHARGE:  cpu time    5.2574: real time    5.2615
    MIXING:  cpu time    0.0089: real time    0.0090
    --------------------------------------------
      LOOP:  cpu time  134.6638: real time  135.3196

 eigenvalue-minimisations  : 23484
 total energy-change (2. order) :-0.1846041E+04  (-0.3604166E+03)
 number of electron    1923.0000026 magnetization       1.0000000
 augmentation part      504.4104786 magnetization       0.6391839

 Broyden mixing:
  rms(total) = 0.82882E+01    rms(broyden)= 0.82849E+01
  rms(prec ) = 0.12390E+02
  weight for this iteration     100.00

 Free energy of the ion-electron system (eV)
  ---------------------------------------------------
  alpha Z        PSCENC =      6118.73324990
  Ewald energy   TEWEN  =   -103215.05149845
  -Hartree energ DENC   =    -65398.50795198
  -exchange      EXHF   =         0.00000000
  -V(xc)+E(xc)   XCENC  =      8960.50975187
  PAW double counting   =    198667.26773084  -199663.15900469
  entropy T*S    EENTRO =        -0.00247566
  eigenvalues    EBANDS =    -25893.08329223
  atomic energy  EATOM  =    178577.25249613
  Solvation  Ediel_sol  =         0.00000000
  ---------------------------------------------------
  free energy    TOTEN  =     -1846.04099426 eV

  energy without entropy =    -1846.03851860  energy(sigma->0) =    -1846.03975643


--------------------------------------------------------------------------------------------------------




--------------------------------------- Iteration      1(   2)  ---------------------------------------


    POTLOK:  cpu time    0.2619: real time    0.2643
    SETDIJ:  cpu time    1.3969: real time    1.3980
     EDDAV:  cpu time  141.7704: real time  142.5032
       DOS:  cpu time    0.0028: real time    0.0028
    CHARGE:  cpu time    5.2170: real time    5.2205
    MIXING:  cpu time    0.0086: real time    0.0090
    --------------------------------------------
      LOOP:  cpu time  148.6576: real time  149.3979

 eigenvalue-minimisations  : 26436
 total energy-change (2. order) :-0.1527256E+02  (-0.3012973E+03)
 number of electron    1923.0000025 magnetization       1.0000000
 augmentation part      503.4781756 magnetization       0.2117882

 Broyden mixing:
  rms(total) = 0.84549E+01    rms(broyden)= 0.84505E+01
  rms(prec ) = 0.12305E+02
  weight for this iteration     100.00

 eigenvalues of (default mixing * dielectric matrix)
  average eigenvalue GAMMA=   0.4846
  0.4846

 Free energy of the ion-electron system (eV)
  ---------------------------------------------------
  alpha Z        PSCENC =      6118.73324990
  Ewald energy   TEWEN  =   -103215.05149845
  -Hartree energ DENC   =    -65483.11066362
  -exchange      EXHF   =         0.00000000
  -V(xc)+E(xc)   XCENC  =      8961.04385216
  PAW double counting   =    200635.81617370  -201606.12466554
  entropy T*S    EENTRO =        -0.00096704
  eigenvalues    EBANDS =    -25849.87153173
  atomic energy  EATOM  =    178577.25249613
  Solvation  Ediel_sol  =         0.00000000
  ---------------------------------------------------
  free energy    TOTEN  =     -1861.31355449 eV

  energy without entropy =    -1861.31258745  energy(sigma->0) =    -1861.31307097


--------------------------------------------------------------------------------------------------------




--------------------------------------- Iteration      1(   3)  ---------------------------------------


    POTLOK:  cpu time    0.2598: real time    0.2626
    SETDIJ:  cpu time    1.3900: real time    1.3905
     EDDAV:  cpu time  143.7325: real time  144.7733
       DOS:  cpu time    0.0016: real time    0.0016
    CHARGE:  cpu time    5.2493: real time    5.2532
    MIXING:  cpu time    0.0081: real time    0.0081
    --------------------------------------------
      LOOP:  cpu time  150.6413: real time  151.6893

 eigenvalue-minimisations  : 27288
 total energy-change (2. order) : 0.2274792E+02  (-0.9477508E+02)
 number of electron    1923.0000025 magnetization       1.0000000
 augmentation part      492.8692855 magnetization       0.5861740

 Broyden mixing:
  rms(total) = 0.53166E+01    rms(broyden)= 0.53145E+01
  rms(prec ) = 0.61078E+01
  weight for this iteration     100.00

 eigenvalues of (default mixing * dielectric matrix)
  average eigenvalue GAMMA=   0.4694
  0.4694  0.4694

 Free energy of the ion-electron system (eV)
  ---------------------------------------------------
  alpha Z        PSCENC =      6118.73324990
  Ewald energy   TEWEN  =   -103215.05149845
  -Hartree energ DENC   =    -65546.75610243
  -exchange      EXHF   =         0.00000000
  -V(xc)+E(xc)   XCENC  =      8963.30268887
  PAW double counting   =    200511.60877766  -201478.61926922
  entropy T*S    EENTRO =        -0.00000000
  eigenvalues    EBANDS =    -25769.03597851
  atomic energy  EATOM  =    178577.25249613
  Solvation  Ediel_sol  =         0.00000000
  ---------------------------------------------------
  free energy    TOTEN  =     -1838.56563605 eV

  energy without entropy =    -1838.56563605  energy(sigma->0) =    -1838.56563605


--------------------------------------------------------------------------------------------------------




--------------------------------------- Iteration      1(   4)  ---------------------------------------


    POTLOK:  cpu time    0.2643: real time    0.2665
    SETDIJ:  cpu time    1.6987: real time    1.7004
     EDDAV:  cpu time  135.4368: real time  136.2648
       DOS:  cpu time    0.0023: real time    0.0023
    CHARGE:  cpu time    5.2338: real time    5.2509
    MIXING:  cpu time    0.0074: real time    0.0077
    --------------------------------------------
      LOOP:  cpu time  142.6433: real time  143.4927

 eigenvalue-minimisations  : 25416
 total energy-change (2. order) : 0.3672328E+02  (-0.2638711E+02)
 number of electron    1923.0000025 magnetization       1.0000000
 augmentation part      494.0178738 magnetization       0.5877262

 Broyden mixing:
  rms(total) = 0.38299E+01    rms(broyden)= 0.38291E+01
  rms(prec ) = 0.44450E+01
  weight for this iteration     100.00

 eigenvalues of (default mixing * dielectric matrix)
  average eigenvalue GAMMA=   0.5680
  0.5998  0.5998  0.5045

 Free energy of the ion-electron system (eV)
  ---------------------------------------------------
  alpha Z        PSCENC =      6118.73324990
  Ewald energy   TEWEN  =   -103215.05149845
  -Hartree energ DENC   =    -65514.28456696
  -exchange      EXHF   =         0.00000000
  -V(xc)+E(xc)   XCENC  =      8968.57846153
  PAW double counting   =    200590.27692436  -201572.53724505
  entropy T*S    EENTRO =        -0.00547773
  eigenvalues    EBANDS =    -25754.80469668
  atomic energy  EATOM  =    178577.25249613
  Solvation  Ediel_sol  =         0.00000000
  ---------------------------------------------------
  free energy    TOTEN  =     -1801.84235295 eV

  energy without entropy =    -1801.83687522  energy(sigma->0) =    -1801.83961408


--------------------------------------------------------------------------------------------------------




--------------------------------------- Iteration      1(   5)  ---------------------------------------


    POTLOK:  cpu time    0.2643: real time    0.2646
    SETDIJ:  cpu time    1.3926: real time    1.3932
     EDDAV:  cpu time  142.7021: real time  143.6867
       DOS:  cpu time    0.0017: real time    0.0017
    CHARGE:  cpu time    5.2231: real time    5.2270
    MIXING:  cpu time    0.0076: real time    0.0076
    --------------------------------------------
      LOOP:  cpu time  149.5915: real time  150.5808

 eigenvalue-minimisations  : 27048
 total energy-change (2. order) : 0.2836509E+02  (-0.6998903E+01)
 number of electron    1923.0000025 magnetization       1.0000000
 augmentation part      494.5704914 magnetization       0.5827578

 Broyden mixing:
  rms(total) = 0.23193E+01    rms(broyden)= 0.23190E+01
  rms(prec ) = 0.27036E+01
  weight for this iteration     100.00

 eigenvalues of (default mixing * dielectric matrix)
  average eigenvalue GAMMA=   0.6811
  0.8497  0.8497  0.5126  0.5126

 Free energy of the ion-electron system (eV)
  ---------------------------------------------------
  alpha Z        PSCENC =      6118.73324990
  Ewald energy   TEWEN  =   -103215.05149845
  -Hartree energ DENC   =    -65512.69460369
  -exchange      EXHF   =         0.00000000
  -V(xc)+E(xc)   XCENC  =      8972.60317978
  PAW double counting   =    200135.04458592  -201128.65561737
  entropy T*S    EENTRO =        -0.00000000
  eigenvalues    EBANDS =    -25720.70905669
  atomic energy  EATOM  =    178577.25249613
  Solvation  Ediel_sol  =         0.00000000
  ---------------------------------------------------
  free energy    TOTEN  =     -1773.47726445 eV

  energy without entropy =    -1773.47726445  energy(sigma->0) =    -1773.47726445


--------------------------------------------------------------------------------------------------------




--------------------------------------- Iteration      1(   6)  ---------------------------------------


    POTLOK:  cpu time    0.2605: real time    0.2628
    SETDIJ:  cpu time    1.3884: real time    1.3891
     EDDAV:  cpu time  143.5376: real time  144.3517
       DOS:  cpu time    0.0019: real time    0.0019
    CHARGE:  cpu time    5.2656: real time    5.2881
    MIXING:  cpu time    0.0082: real time    0.0082
    --------------------------------------------
      LOOP:  cpu time  150.4620: real time  151.3018

 eigenvalue-minimisations  : 26940
 total energy-change (2. order) : 0.1302178E+02  (-0.5194958E+01)
 number of electron    1923.0000025 magnetization       1.0000000
 augmentation part      495.6386010 magnetization       0.5530161

 Broyden mixing:
  rms(total) = 0.14088E+01    rms(broyden)= 0.14085E+01
  rms(prec ) = 0.15379E+01
  weight for this iteration     100.00

 eigenvalues of (default mixing * dielectric matrix)
  average eigenvalue GAMMA=   0.7226
  0.9825  0.9825  0.4742  0.5869  0.5869

 Free energy of the ion-electron system (eV)
  ---------------------------------------------------
  alpha Z        PSCENC =      6118.73324990
  Ewald energy   TEWEN  =   -103215.05149845
  -Hartree energ DENC   =    -65462.08436578
  -exchange      EXHF   =         0.00000000
  -V(xc)+E(xc)   XCENC  =      8973.22309854
  PAW double counting   =    199657.47851837  -200658.72285026
  entropy T*S    EENTRO =        -0.00000000
  eigenvalues    EBANDS =    -25751.28412908
  atomic energy  EATOM  =    178577.25249613
  Solvation  Ediel_sol  =         0.00000000
  ---------------------------------------------------
  free energy    TOTEN  =     -1760.45548063 eV

  energy without entropy =    -1760.45548063  energy(sigma->0) =    -1760.45548063


--------------------------------------------------------------------------------------------------------




--------------------------------------- Iteration      1(   7)  ---------------------------------------


    POTLOK:  cpu time    0.2625: real time    0.2633
    SETDIJ:  cpu time    1.4026: real time    1.4032
     EDDAV:  cpu time  148.1483: real time  149.1825
       DOS:  cpu time    0.0020: real time    0.0020
    CHARGE:  cpu time    5.4462: real time    5.4516
    MIXING:  cpu time    0.0291: real time    0.0291
    --------------------------------------------
      LOOP:  cpu time  155.2907: real time  156.3318

 eigenvalue-minimisations  : 28452
 total energy-change (2. order) : 0.1702379E+01  (-0.9893452E+00)
 number of electron    1923.0000025 magnetization       1.0000000
 augmentation part      496.5929628 magnetization       0.5809499

 Broyden mixing:
  rms(total) = 0.10263E+01    rms(broyden)= 0.10256E+01
  rms(prec ) = 0.10856E+01
  weight for this iteration     100.00

 eigenvalues of (default mixing * dielectric matrix)
  average eigenvalue GAMMA=   0.8465
  1.2882  1.2882  0.7104  0.7104  0.5410  0.5410

 Free energy of the ion-electron system (eV)
  ---------------------------------------------------
  alpha Z        PSCENC =      6118.73324990
  Ewald energy   TEWEN  =   -103215.05149845
  -Hartree energ DENC   =    -65428.50621251
  -exchange      EXHF   =         0.00000000
  -V(xc)+E(xc)   XCENC  =      8972.27396090
  PAW double counting   =    199337.52197243  -200341.65088564
  entropy T*S    EENTRO =        -0.00000000
  eigenvalues    EBANDS =    -25779.32618479
  atomic energy  EATOM  =    178577.25249613
  Solvation  Ediel_sol  =         0.00000000
  ---------------------------------------------------
  free energy    TOTEN  =     -1758.75310202 eV

  energy without entropy =    -1758.75310202  energy(sigma->0) =    -1758.75310202


--------------------------------------------------------------------------------------------------------




--------------------------------------- Iteration      1(   8)  ---------------------------------------


    POTLOK:  cpu time    0.3754: real time    0.3777
    SETDIJ:  cpu time    1.3904: real time    1.3916
     EDDAV:  cpu time  137.2746: real time  137.8417
       DOS:  cpu time    0.0018: real time    0.0018
    CHARGE:  cpu time    5.3328: real time    5.3394
    MIXING:  cpu time    0.0465: real time    0.0466
    --------------------------------------------
      LOOP:  cpu time  144.4215: real time  144.9988

 eigenvalue-minimisations  : 25992
 total energy-change (2. order) :-0.2661114E+00  (-0.1138545E+01)
[...]
   81        1.574   3.461   0.000   5.034
   82        1.574   3.462   0.000   5.036
   83        1.574   3.462   0.000   5.036
   84        1.576   3.469   0.000   5.046
   85        1.575   3.463   0.000   5.038
   86        1.575   3.466   0.000   5.041
   87        1.575   3.463   0.000   5.038
   88        1.575   3.465   0.000   5.040
   89        1.567   3.483   0.000   5.050
   90        1.575   3.461   0.000   5.036
   91        1.574   3.460   0.000   5.034
   92        1.574   3.461   0.000   5.035
   93        1.577   3.471   0.000   5.048
   94        1.577   3.473   0.000   5.049
   95        1.576   3.474   0.000   5.050
   96        1.573   3.463   0.000   5.037
   97        1.575   3.466   0.000   5.041
   98        1.576   3.473   0.000   5.049
   99        1.575   3.464   0.000   5.038
  100        1.576   3.459   0.000   5.034
  101        1.574   3.459   0.000   5.033
  102        1.575   3.460   0.000   5.034
  103        1.575   3.459   0.000   5.034
  104        1.574   3.460   0.000   5.034
  105        1.577   3.472   0.000   5.049
  106        1.575   3.462   0.000   5.037
  107        1.575   3.462   0.000   5.037
  108        1.576   3.472   0.000   5.047
  109        1.576   3.470   0.000   5.046
  110        1.577   3.459   0.000   5.037
  111        1.576   3.472   0.000   5.048
  112        1.577   3.463   0.000   5.040
  113        1.576   3.474   0.000   5.050
  114        1.577   3.475   0.000   5.052
  115        1.574   3.465   0.000   5.040
  116        1.575   3.463   0.000   5.038
  117        1.568   3.488   0.000   5.056
  118        1.576   3.467   0.000   5.043
  119        1.576   3.476   0.000   5.053
  120        1.575   3.461   0.000   5.036
  121        1.575   3.464   0.000   5.038
  122        1.577   3.471   0.000   5.047
  123        1.578   3.480   0.000   5.058
  124        1.576   3.471   0.000   5.047
  125        1.576   3.475   0.000   5.051
  126        1.576   3.471   0.000   5.046
  127        1.575   3.459   0.000   5.033
  128        1.574   3.460   0.000   5.034
  129        1.576   3.470   0.000   5.047
  130        1.737   4.368   0.000   6.105
  131        1.737   4.370   0.000   6.107
  132        1.737   4.379   0.000   6.116
  133        1.738   4.387   0.000   6.125
  134        1.738   4.384   0.000   6.122
  135        1.737   4.368   0.000   6.105
  136        1.736   4.367   0.000   6.103
  137        1.739   4.381   0.000   6.119
  138        1.738   4.381   0.000   6.120
  139        1.739   4.388   0.000   6.127
  140        1.739   4.386   0.000   6.125
  141        1.738   4.382   0.000   6.120
  142        1.738   4.380   0.000   6.118
  143        1.738   4.385   0.000   6.123
  144        1.739   4.387   0.000   6.125
  145        1.738   4.382   0.000   6.120
  146        1.737   4.382   0.000   6.119
  147        1.737   4.369   0.000   6.106
  148        1.736   4.368   0.000   6.104
  149        1.740   4.384   0.000   6.124
  150        1.738   4.387   0.000   6.125
  151        1.738   4.376   0.000   6.114
  152        1.738   4.380   0.000   6.118
  153        1.737   4.380   0.000   6.117
  154        1.737   4.371   0.000   6.108
  155        1.737   4.372   0.000   6.110
  156        1.737   4.369   0.000   6.106
  157        1.737   4.368   0.000   6.104
  158        1.738   4.375   0.000   6.113
  159        1.738   4.374   0.000   6.112
  160        1.737   4.368   0.000   6.105
  161        1.736   4.368   0.000   6.105
  162        1.737   4.370   0.000   6.106
  163        1.736   4.368   0.000   6.104
  164        1.738   4.379   0.000   6.116
  165        1.737   4.369   0.000   6.106
  166        1.736   4.369   0.000   6.106
  167        1.737   4.370   0.000   6.107
  168        1.737   4.371   0.000   6.108
  169        1.739   4.374   0.000   6.113
  170        1.738   4.379   0.000   6.116
  171        1.737   4.370   0.000   6.107
  172        1.738   4.387   0.000   6.126
  173        1.737   4.370   0.000   6.107
  174        1.737   4.369   0.000   6.106
  175        1.739   4.382   0.000   6.120
  176        1.737   4.366   0.000   6.103
  177        1.738   4.380   0.000   6.117
  178        1.737   4.369   0.000   6.106
  179        1.737   4.372   0.000   6.109
  180        1.738   4.379   0.000   6.117
  181        1.736   4.369   0.000   6.105
  182        1.738   4.376   0.000   6.113
  183        1.735   4.389   0.000   6.124
  184        1.737   4.380   0.000   6.117
  185        1.737   4.383   0.000   6.120
  186        1.737   4.381   0.000   6.119
  187        1.738   4.377   0.000   6.115
  188        1.738   4.377   0.000   6.115
  189        1.738   4.381   0.000   6.119
  190        1.738   4.380   0.000   6.119
  191        1.739   4.386   0.000   6.125
  192        1.737   4.371   0.000   6.109
  193        1.739   4.387   0.000   6.126
  194        1.737   4.370   0.000   6.107
  195        1.737   4.370   0.000   6.107
  196        1.737   4.380   0.000   6.117
  197        1.737   4.369   0.000   6.106
  198        1.737   4.380   0.000   6.117
  199        1.738   4.381   0.000   6.119
  200        1.738   4.381   0.000   6.120
  201        1.738   4.380   0.000   6.118
  202        1.738   4.378   0.000   6.117
  203        1.738   4.381   0.000   6.119
  204        1.738   4.378   0.000   6.116
  205        1.737   4.375   0.000   6.113
  206        1.737   4.369   0.000   6.106
  207        1.737   4.369   0.000   6.106
  208        1.737   4.381   0.000   6.118
  209        1.737   4.376   0.000   6.113
  210        1.737   4.370   0.000   6.106
  211        1.737   4.371   0.000   6.108
  212        1.737   4.381   0.000   6.118
  213        1.739   4.374   0.000   6.113
  214        1.737   4.370   0.000   6.107
  215        1.738   4.380   0.000   6.119
  216        1.736   4.368   0.000   6.104
  217        1.737   4.368   0.000   6.105
  218        1.737   4.380   0.000   6.117
  219        1.738   4.378   0.000   6.116
  220        1.738   4.381   0.000   6.119
  221        1.738   4.380   0.000   6.118
  222        1.737   4.380   0.000   6.118
  223        1.738   4.381   0.000   6.119
  224        1.738   4.382   0.000   6.120
  225        1.738   4.380   0.000   6.118
  226        1.738   4.376   0.000   6.114
  227        1.737   4.380   0.000   6.117
  228        1.738   4.378   0.000   6.115
  229        1.738   4.379   0.000   6.117
  230        1.736   4.369   0.000   6.106
  231        1.738   4.376   0.000   6.114
  232        1.737   4.369   0.000   6.106
  233        1.738   4.383   0.000   6.122
  234        1.737   4.370   0.000   6.107
  235        1.737   4.370   0.000   6.107
  236        1.739   4.388   0.000   6.126
  237        1.739   4.386   0.000   6.125
  238        1.737   4.380   0.000   6.117
  239        1.738   4.377   0.000   6.116
  240        1.737   4.380   0.000   6.118
  241        1.738   4.377   0.000   6.115
  242        1.738   4.387   0.000   6.125
  243        1.738   4.387   0.000   6.125
  244        1.738   4.379   0.000   6.117
  245        1.737   4.389   0.000   6.125
  246        1.739   4.384   0.000   6.123
  247        1.738   4.387   0.000   6.125
  248        1.738   4.378   0.000   6.116
  249        1.738   4.385   0.000   6.123
  250        1.738   4.378   0.000   6.116
  251        1.738   4.380   0.000   6.118
  252        1.737   4.380   0.000   6.118
  253        1.738   4.380   0.000   6.118
  254        1.739   4.387   0.000   6.125
  255        1.738   4.376   0.000   6.114
  256        1.739   4.385   0.000   6.124
  257        1.738   4.378   0.000   6.116
--------------------------------------------------
tot        345.5771195.565 112.6621653.803
 


 magnetization (x)
 
# of ion       s       p       d       tot
------------------------------------------
    1       -0.000  -0.000   0.000  -0.000
    2       -0.000  -0.000  -0.000  -0.000
    3       -0.000  -0.000   0.000   0.000
    4       -0.000  -0.000  -0.001  -0.002
    5       -0.000  -0.000   0.000   0.000
    6       -0.000  -0.000  -0.000  -0.000
    7       -0.000  -0.000  -0.000  -0.000
    8       -0.000  -0.000  -0.000  -0.000
    9       -0.000  -0.000  -0.000  -0.000
   10       -0.000  -0.000   0.000   0.000
   11       -0.000  -0.000  -0.000  -0.000
   12       -0.000  -0.000   0.000   0.000
   13       -0.000   0.000   0.000   0.000
   14       -0.000  -0.000   0.000   0.000
   15       -0.000  -0.000  -0.000  -0.000
   16       -0.000  -0.000   0.000   0.000
   17       -0.000  -0.000   0.000   0.000
   18        0.005   0.006   0.865   0.876
   19        0.000   0.000   0.003   0.003
   20       -0.000  -0.000  -0.000  -0.000
   21       -0.000  -0.000   0.000   0.000
   22        0.000  -0.000   0.001   0.001
   23        0.000   0.000   0.000   0.000
   24       -0.000  -0.000  -0.000  -0.000
   25       -0.000  -0.000  -0.000  -0.000
   26        0.000   0.000   0.017   0.017
   27       -0.000  -0.000   0.007   0.007
   28        0.000  -0.000   0.000   0.000
   29       -0.000  -0.000   0.000   0.000
   30        0.000   0.000   0.003   0.003
   31        0.000   0.000   0.001   0.001
   32       -0.000  -0.000  -0.000  -0.000
   33       -0.000  -0.000  -0.000  -0.000
   34       -0.000  -0.000   0.000   0.000
   35       -0.000  -0.000   0.000   0.000
   36       -0.000  -0.000  -0.000  -0.000
   37       -0.000  -0.000  -0.000  -0.000
   38       -0.000  -0.000  -0.000  -0.000
   39       -0.000  -0.000  -0.000  -0.000
   40       -0.000  -0.000  -0.000  -0.000
   41       -0.000  -0.000   0.000   0.000
   42       -0.000  -0.000   0.000   0.000
   43       -0.000  -0.000   0.000   0.000
   44       -0.000  -0.000   0.000  -0.000
   45       -0.000  -0.000   0.000   0.000
   46       -0.000  -0.000   0.000   0.000
   47       -0.000  -0.000  -0.000  -0.000
   48       -0.000  -0.000  -0.000  -0.000
   49       -0.000  -0.000   0.000   0.000
   50       -0.000   0.000   0.002   0.003
   51        0.000   0.000   0.000   0.000
   52        0.000  -0.000   0.000   0.000
   53       -0.000  -0.000   0.000   0.000
   54        0.000   0.001   0.088   0.090
   55        0.000   0.000   0.000   0.000
   56       -0.000  -0.000  -0.000  -0.000
   57       -0.000  -0.000  -0.000  -0.000
   58        0.000   0.000   0.002   0.002
   59        0.000   0.000   0.002   0.002
   60        0.000   0.000   0.000   0.000
   61        0.000   0.000   0.000   0.000
   62        0.000   0.000   0.017   0.017
   63        0.000   0.000   0.003   0.003
   64       -0.000  -0.000   0.000   0.000
   65       -0.000  -0.000  -0.000  -0.000
   66       -0.000  -0.000   0.000  -0.000
   67       -0.000  -0.000   0.000  -0.000
   68       -0.000  -0.000   0.000  -0.000
   69        0.000  -0.000   0.000  -0.000
   70       -0.000  -0.000   0.000  -0.000
   71        0.000  -0.000   0.000  -0.000
   72       -0.000  -0.000   0.000  -0.000
   73        0.000   0.000   0.000   0.000
   74       -0.000  -0.001   0.000  -0.002
   75       -0.000  -0.000   0.000  -0.000
   76       -0.000  -0.000   0.000  -0.000
   77       -0.000  -0.000   0.000  -0.000
   78       -0.000  -0.000   0.000  -0.000
   79        0.000  -0.000   0.000  -0.000
   80       -0.000  -0.000   0.000  -0.000
   81       -0.000  -0.000   0.000  -0.000
   82       -0.000  -0.001   0.000  -0.001
   83       -0.000  -0.000   0.000  -0.000
   84       -0.000  -0.007   0.000  -0.007
   85       -0.000  -0.000   0.000  -0.000
   86       -0.000  -0.000   0.000  -0.000
   87        0.000   0.000   0.000   0.000
   88        0.000   0.000   0.000   0.000
   89       -0.000  -0.000   0.000  -0.000
   90       -0.000  -0.000   0.000  -0.000
   91       -0.000  -0.000   0.000  -0.000
   92       -0.000  -0.000   0.000  -0.000
   93       -0.000  -0.000   0.000  -0.000
   94        0.000   0.000   0.000   0.000
   95        0.000  -0.000   0.000  -0.000
   96       -0.000  -0.000   0.000  -0.000
   97       -0.000  -0.000   0.000  -0.000
   98       -0.000  -0.001   0.000  -0.001
   99       -0.000  -0.000   0.000  -0.000
  100       -0.000  -0.000   0.000  -0.000
  101       -0.000  -0.000   0.000  -0.000
  102        0.000  -0.000   0.000  -0.000
  103       -0.000  -0.000   0.000  -0.000
  104       -0.000  -0.000   0.000  -0.000
  105       -0.000  -0.000   0.000  -0.000
  106       -0.000  -0.000   0.000  -0.000
  107       -0.000  -0.000   0.000  -0.000
  108       -0.000  -0.000   0.000  -0.000
  109        0.000  -0.000   0.000  -0.000
  110       -0.002  -0.043   0.000  -0.045
  111       -0.000  -0.000   0.000  -0.000
  112       -0.000  -0.000   0.000  -0.000
  113       -0.000  -0.000   0.000  -0.000
  114       -0.000  -0.000   0.000  -0.000
  115       -0.000  -0.000   0.000  -0.000
  116       -0.000  -0.000   0.000  -0.000
  117       -0.001  -0.012   0.000  -0.013
  118       -0.000  -0.000   0.000  -0.000
  119       -0.000  -0.000   0.000  -0.000
  120       -0.000  -0.000   0.000  -0.000
  121        0.000   0.000   0.000   0.000
  122       -0.000  -0.001   0.000  -0.001
  123       -0.000  -0.000   0.000  -0.000
  124       -0.000  -0.000   0.000  -0.000
  125       -0.000  -0.000   0.000  -0.000
  126       -0.000  -0.000   0.000  -0.000
  127       -0.000  -0.000   0.000  -0.000
  128       -0.000  -0.000   0.000  -0.000
  129       -0.000  -0.000   0.000  -0.000
  130       -0.000  -0.000   0.000  -0.000
  131       -0.000  -0.000   0.000  -0.000
  132       -0.000  -0.000   0.000  -0.000
  133       -0.000  -0.000   0.000  -0.000
  134        0.000  -0.000   0.000  -0.000
  135       -0.000  -0.000   0.000  -0.000
  136        0.000   0.000   0.000   0.000
  137       -0.000  -0.000   0.000  -0.000
  138       -0.000  -0.000   0.000  -0.000
  139       -0.000  -0.000   0.000  -0.000
  140       -0.000  -0.000   0.000  -0.000
  141       -0.000  -0.001   0.000  -0.001
  142       -0.000  -0.000   0.000  -0.000
  143       -0.000  -0.000   0.000  -0.000
  144       -0.000  -0.000   0.000  -0.000
  145       -0.000   0.000   0.000   0.000
  146       -0.000   0.001   0.000   0.001
  147       -0.000  -0.000   0.000  -0.000
  148       -0.000  -0.000   0.000  -0.000
  149       -0.000  -0.000   0.000  -0.000
  150       -0.000  -0.000   0.000  -0.000
  151       -0.000   0.000   0.000   0.000
  152       -0.000   0.000   0.000   0.000
  153       -0.000  -0.000   0.000  -0.000
  154        0.000  -0.000   0.000  -0.000
  155       -0.000  -0.000   0.000  -0.000
  156        0.000  -0.000   0.000  -0.000
  157        0.000  -0.000   0.000  -0.000
  158        0.000  -0.000   0.000  -0.000
  159       -0.000  -0.000   0.000  -0.000
  160       -0.000  -0.000   0.000  -0.000
  161       -0.000  -0.000   0.000  -0.000
  162        0.000  -0.000   0.000  -0.000
  163       -0.000  -0.000   0.000  -0.000
  164        0.000  -0.000   0.000  -0.000
  165       -0.000  -0.000   0.000  -0.000
  166       -0.000  -0.000   0.000  -0.000
  167        0.000  -0.000   0.000  -0.000
  168        0.000  -0.000   0.000  -0.000
  169       -0.000  -0.000   0.000  -0.000
  170       -0.000  -0.000   0.000  -0.000
  171       -0.000  -0.000   0.000  -0.000
  172       -0.000  -0.000   0.000  -0.000
  173       -0.000  -0.000   0.000  -0.000
  174       -0.000  -0.000   0.000  -0.000
  175       -0.000  -0.000   0.000  -0.000
  176        0.000   0.000   0.000   0.000
  177        0.000  -0.000   0.000  -0.000
  178       -0.000  -0.000   0.000  -0.000
  179        0.000  -0.000   0.000  -0.000
  180        0.000  -0.000   0.000  -0.000
  181        0.000  -0.000   0.000  -0.000
  182       -0.000  -0.000   0.000  -0.000
  183       -0.000   0.002   0.000   0.002
  184       -0.000  -0.000   0.000  -0.000
  185        0.000  -0.000   0.000  -0.000
  186       -0.000  -0.000   0.000  -0.000
  187       -0.000  -0.001   0.000  -0.001
  188        0.000  -0.000   0.000  -0.000
  189       -0.000  -0.000   0.000  -0.000
  190       -0.000   0.000   0.000   0.000
  191       -0.000   0.000   0.000   0.000
  192       -0.000  -0.000   0.000  -0.000
  193        0.000  -0.000   0.000  -0.000
  194       -0.000  -0.000   0.000  -0.000
  195       -0.000  -0.000   0.000  -0.000
  196       -0.000  -0.000   0.000  -0.000
  197       -0.000  -0.000   0.000  -0.000
  198       -0.000  -0.000   0.000  -0.000
  199       -0.000   0.000   0.000   0.000
  200        0.000  -0.000   0.000  -0.000
  201       -0.000  -0.000   0.000  -0.000
  202       -0.000  -0.000   0.000  -0.000
  203        0.000  -0.000   0.000  -0.000
  204       -0.000  -0.000   0.000  -0.000
  205       -0.000  -0.000   0.000  -0.000
  206        0.000  -0.000   0.000   0.000
  207       -0.000  -0.000   0.000  -0.000
  208       -0.000  -0.000   0.000  -0.000
  209       -0.000  -0.001   0.000  -0.001
  210        0.000  -0.000   0.000  -0.000
  211       -0.000  -0.000   0.000  -0.000
  212       -0.000  -0.007   0.000  -0.007
  213       -0.000  -0.000   0.000  -0.000
  214       -0.000  -0.000   0.000  -0.000
  215       -0.000  -0.000   0.000  -0.000
  216       -0.000  -0.000   0.000  -0.000
  217       -0.000  -0.000   0.000  -0.000
  218       -0.000   0.000   0.000   0.000
  219       -0.000  -0.000   0.000  -0.000
  220        0.000  -0.000   0.000  -0.000
  221       -0.000  -0.000   0.000  -0.000
  222       -0.000  -0.000   0.000  -0.000
  223       -0.000  -0.000   0.000  -0.000
  224       -0.000  -0.000   0.000  -0.000
  225       -0.000  -0.000   0.000  -0.000
  226       -0.000  -0.000   0.000  -0.000
  227       -0.000  -0.000   0.000  -0.000
  228       -0.000  -0.000   0.000  -0.000
  229       -0.000  -0.000   0.000  -0.000
  230       -0.000  -0.000   0.000  -0.000
  231       -0.000  -0.000   0.000  -0.000
  232       -0.000  -0.000   0.000  -0.000
  233       -0.000  -0.000   0.000  -0.000
  234       -0.000  -0.000   0.000  -0.000
  235       -0.000  -0.000   0.000  -0.000
  236       -0.000  -0.001   0.000  -0.001
  237       -0.000  -0.000   0.000  -0.000
  238        0.000   0.000   0.000   0.000
  239       -0.000  -0.000   0.000  -0.000
  240       -0.000  -0.000   0.000  -0.000
  241       -0.000  -0.000   0.000  -0.000
  242       -0.000  -0.000   0.000  -0.000
  243       -0.000  -0.000   0.000  -0.000
  244       -0.000  -0.000   0.000  -0.000
  245       -0.000  -0.000   0.000  -0.000
  246        0.000  -0.000   0.000  -0.000
  247       -0.000  -0.001   0.000  -0.001
  248       -0.000  -0.000   0.000  -0.000
  249       -0.000  -0.000   0.000  -0.000
  250       -0.000  -0.000   0.000  -0.000
  251       -0.000  -0.000   0.000  -0.000
  252        0.000  -0.000   0.000  -0.000
  253       -0.000  -0.000   0.000  -0.000
  254       -0.000  -0.000   0.000  -0.000
  255       -0.000  -0.000   0.000  -0.000
  256        0.000  -0.000   0.000  -0.000
  257       -0.000  -0.000   0.000  -0.000
--------------------------------------------------
tot          0.001  -0.072   1.010   0.939
 

 total amount of memory used by VASP MPI-rank0   291505. kBytes
=======================================================================

   base      :      30000. kBytes
   nonlr-proj:      49470. kBytes
   fftplans  :      27976. kBytes
   grid      :      34041. kBytes
   one-center:       1026. kBytes
   wavefun   :     148992. kBytes
 
  
  
 General timing and accounting informations for this job:
 ========================================================
  
                  Total CPU time used (sec):     4087.876
                            User time (sec):     3708.917
                          System time (sec):      378.960
                         Elapsed time (sec):     4120.990
  
                   Maximum memory used (kb):      620324.
                   Average memory used (kb):           0.
  
                          Minor page faults:       213808
                          Major page faults:           14
                 Voluntary context switches:        29022
