 vasp.5.4.4.18Apr17-6-g9f103f2a35 (build Jul 16 2019 12:12:28) complex          
  
 executed on             LinuxIFC date 2020.01.06  15:33:23
 running on   96 total cores
 distrk:  each k-point on   96 cores,    1 groups
 distr:  one band on NCORES_PER_BAND=   8 cores,   12 groups


--------------------------------------------------------------------------------------------------------


 INCAR:
 POTCAR:    PAW_PBE Li_sv 10Sep2004               
 POTCAR:    PAW_PBE Ti_pv 07Sep2000               
 POTCAR:    PAW_PBE O 08Apr2002                   
 POTCAR:    PAW_PBE F 08Apr2002                   
 POTCAR:    PAW_PBE Li_sv 10Sep2004               
   VRHFIN =Li: 1s2s2p                                                           
   LEXCH  = PE                                                                  
   EATOM  =   202.7858 eV,   14.9043 Ry                                         
                                                                                
   TITEL  = PAW_PBE Li_sv 10Sep2004                                             
   LULTRA =        F    use ultrasoft PP ?                                      
   IUNSCR =        0    unscreen: 0-lin 1-nonlin 2-no                           
   RPACOR =    0.000    partial core radius                                     
   POMASS =    7.010; ZVAL   =    3.000    mass and valenz                      
   RCORE  =    1.700    outmost cutoff radius                                   
   RWIGS  =    2.050; RWIGS  =    1.085    wigner-seitz radius (au A)           
   ENMAX  =  499.034; ENMIN  =  374.276 eV                                      
   ICORE  =        2    local potential                                         
   LCOR   =        T    correct aug charges                                     
   LPAW   =        T    paw PP                                                  
   EAUG   =  628.945                                                            
   RMAX   =    1.732    core radius for proj-oper                               
   RAUG   =    1.300    factor for augmentation sphere                          
   RDEP   =    1.728    radius for radial grids                                 
   RDEPT  =    1.329    core radius for aug-charge                              
                                                                                
   Atomic configuration                                                         
    4 entries                                                                   
     n  l   j            E        occ.                                          
     1  0  0.50       -51.8549   2.0000                                         
     2  0  0.50        -2.8742   1.0000                                         
     2  1  0.50        -1.3606   0.0000                                         
     3  2  1.50        -1.3606   0.0000                                         
   Description                                                                  
     l       E           TYP  RCUT    TYP  RCUT                                 
     0    -51.8548813     23  1.400                                             
     0     -2.8742052     23  1.700                                             
     1     -1.3605826     23  1.400                                             
     2     -1.3605826     23  1.400                                             
  local pseudopotential read in
  atomic valenz-charges read in
  non local Contribution for L=           0  read in
    real space projection operators read in
  non local Contribution for L=           0  read in
    real space projection operators read in
  non local Contribution for L=           1  read in
    real space projection operators read in
    PAW grid and wavefunctions read in
 
   number of l-projection  operators is LMAX  =           3
   number of lm-projection operators is LMMAX =           5
 
 POTCAR:    PAW_PBE Ti_pv 07Sep2000               
   VRHFIN =Ti: d3 s1                                                            
   LEXCH  = PE                                                                  
   EATOM  =  1042.5995 eV,   76.6289 Ry                                         
                                                                                
   TITEL  = PAW_PBE Ti_pv 07Sep2000                                             
   LULTRA =        F    use ultrasoft PP ?                                      
   IUNSCR =        1    unscreen: 0-lin 1-nonlin 2-no                           
   RPACOR =    2.200    partial core radius                                     
   POMASS =   47.880; ZVAL   =   10.000    mass and valenz                      
   RCORE  =    2.500    outmost cutoff radius                                   
   RWIGS  =    2.500; RWIGS  =    1.323    wigner-seitz radius (au A)           
   ENMAX  =  222.335; ENMIN  =  166.751 eV                                      
   RCLOC  =    1.701    cutoff for local pot                                    
   LCOR   =        T    correct aug charges                                     
   LPAW   =        T    paw PP                                                  
   EAUG   =  482.848                                                            
   DEXC   =    0.000                                                            
   RMAX   =    2.564    core radius for proj-oper                               
   RAUG   =    1.300    factor for augmentation sphere                          
   RDEP   =    2.538    radius for radial grids                                 
   RDEPT  =    1.952    core radius for aug-charge                              
                                                                                
   Atomic configuration                                                         
    8 entries                                                                   
     n  l   j            E        occ.                                          
     1  0  0.50     -4865.3608   2.0000                                         
     2  0  0.50      -533.1368   2.0000                                         
     2  1  1.50      -440.5031   6.0000                                         
     3  0  0.50       -59.3186   2.0000                                         
     3  1  1.50       -35.7012   6.0000                                         
     3  2  2.50        -1.9157   3.0000                                         
     4  0  0.50        -3.7291   1.0000                                         
     4  3  2.50        -1.3606   0.0000                                         
   Description                                                                  
     l       E           TYP  RCUT    TYP  RCUT                                 
     1    -35.7012140     23  2.300                                             
     1     -1.3605826     23  2.300                                             
     2     -1.9156996     23  2.500                                             
     2     -0.4063033     23  2.500                                             
     0     -3.7290856     23  2.500                                             
     0     20.4087390     23  2.500                                             
  local pseudopotential read in
  partial core-charges read in
  partial kinetic energy density read in
  atomic valenz-charges read in
  non local Contribution for L=           1  read in
    real space projection operators read in
  non local Contribution for L=           1  read in
    real space projection operators read in
  non local Contribution for L=           2  read in
    real space projection operators read in
  non local Contribution for L=           2  read in
    real space projection operators read in
  non local Contribution for L=           0  read in
    real space projection operators read in
  non local Contribution for L=           0  read in
    real space projection operators read in
    PAW grid and wavefunctions read in
 
   number of l-projection  operators is LMAX  =           6
   number of lm-projection operators is LMMAX =          18
 
 POTCAR:    PAW_PBE O 08Apr2002                   
   VRHFIN =O: s2p4                                                              
   LEXCH  = PE                                                                  
   EATOM  =   432.3788 eV,   31.7789 Ry                                         
                                                                                
   TITEL  = PAW_PBE O 08Apr2002                                                 
   LULTRA =        F    use ultrasoft PP ?                                      
   IUNSCR =        1    unscreen: 0-lin 1-nonlin 2-no                           
   RPACOR =    1.200    partial core radius                                     
   POMASS =   16.000; ZVAL   =    6.000    mass and valenz                      
   RCORE  =    1.520    outmost cutoff radius                                   
   RWIGS  =    1.550; RWIGS  =    0.820    wigner-seitz radius (au A)           
   ENMAX  =  400.000; ENMIN  =  300.000 eV                                      
   ICORE  =        2    local potential                                         
   LCOR   =        T    correct aug charges                                     
   LPAW   =        T    paw PP                                                  
   EAUG   =  605.392                                                            
   DEXC   =    0.000                                                            
   RMAX   =    1.553    core radius for proj-oper                               
   RAUG   =    1.300    factor for augmentation sphere                          
   RDEP   =    1.550    radius for radial grids                                 
   RDEPT  =    1.329    core radius for aug-charge                              
                                                                                
   Atomic configuration                                                         
    4 entries                                                                   
     n  l   j            E        occ.                                          
     1  0  0.50      -514.6923   2.0000                                         
     2  0  0.50       -23.9615   2.0000                                         
     2  1  0.50        -9.0305   4.0000                                         
     3  2  1.50        -9.5241   0.0000                                         
   Description                                                                  
     l       E           TYP  RCUT    TYP  RCUT                                 
     0    -23.9615318     23  1.200                                             
     0     -9.5240782     23  1.200                                             
     1     -9.0304911     23  1.520                                             
     1      8.1634956     23  1.520                                             
     2     -9.5240782      7  1.500                                             
  local pseudopotential read in
  partial core-charges read in
  partial kinetic energy density read in
  kinetic energy density of atom read in
  atomic valenz-charges read in
  non local Contribution for L=           0  read in
    real space projection operators read in
  non local Contribution for L=           0  read in
    real space projection operators read in
  non local Contribution for L=           1  read in
    real space projection operators read in
  non local Contribution for L=           1  read in
    real space projection operators read in
    PAW grid and wavefunctions read in
 
   number of l-projection  operators is LMAX  =           4
   number of lm-projection operators is LMMAX =           8
 
 POTCAR:    PAW_PBE F 08Apr2002                   
   VRHFIN =F: s2p5                                                              
   LEXCH  = PE                                                                  
   EATOM  =   659.6475 eV,   48.4827 Ry                                         
                                                                                
   TITEL  = PAW_PBE F 08Apr2002                                                 
   LULTRA =        F    use ultrasoft PP ?                                      
   IUNSCR =        1    unscreen: 0-lin 1-nonlin 2-no                           
   RPACOR =    1.200    partial core radius                                     
   POMASS =   18.998; ZVAL   =    7.000    mass and valenz                      
   RCORE  =    1.520    outmost cutoff radius                                   
   RWIGS  =    1.500; RWIGS  =    0.794    wigner-seitz radius (au A)           
   ENMAX  =  400.000; ENMIN  =  300.000 eV                                      
   ICORE  =        2    local potential                                         
   LCOR   =        T    correct aug charges                                     
   LPAW   =        T    paw PP                                                  
   EAUG   =  613.614                                                            
   RMAX   =    1.555    core radius for proj-oper                               
   RAUG   =    1.300    factor for augmentation sphere                          
   RDEP   =    1.539    radius for radial grids                                 
   RDEPT  =    1.299    core radius for aug-charge                              
                                                                                
   Atomic configuration                                                         
    4 entries                                                                   
     n  l   j            E        occ.                                          
     1  0  0.50      -663.3661   2.0000                                         
     2  0  0.50       -29.8995   2.0000                                         
     2  1  0.50       -11.1114   5.0000                                         
     3  2  1.50       -10.8847   0.0000                                         
   Description                                                                  
     l       E           TYP  RCUT    TYP  RCUT                                 
     0    -29.8995018     23  1.200                                             
     0     -9.5240782     23  1.200                                             
     1    -11.1113914     23  1.520                                             
     1      1.3605826     23  1.520                                             
     2    -10.8846608      7  1.500                                             
  local pseudopotential read in
  partial core-charges read in
  partial kinetic energy density read in
  atomic valenz-charges read in
  non local Contribution for L=           0  read in
    real space projection operators read in
  non local Contribution for L=           0  read in
    real space projection operators read in
  non local Contribution for L=           1  read in
    real space projection operators read in
  non local Contribution for L=           1  read in
    real space projection operators read in
    PAW grid and wavefunctions read in
 
   number of l-projection  operators is LMAX  =           4
   number of lm-projection operators is LMMAX =           8
 
 Optimization of the real space projectors (new method)

 maximal supplied QI-value         = 22.11
 optimisation between [QCUT,QGAM] = [ 11.28, 22.77] = [ 35.61,145.23] Ry 
 Optimized for a Real-space Cutoff    1.31 Angstroem

   l    n(q)    QCUT    max X(q) W(low)/X(q) W(high)/X(q)  e(spline) 
   0      9    11.276    10.506    0.19E-04    0.17E-04    0.32E-07
   0      9    11.276     8.367    0.38E-04    0.40E-04    0.65E-07
   1      8    11.276     8.983    0.55E-04    0.98E-04    0.20E-06
 Optimization of the real space projectors (new method)

 maximal supplied QI-value         = 15.12
 optimisation between [QCUT,QGAM] = [ 11.34, 22.83] = [ 36.00,145.93] Ry 
 Optimized for a Real-space Cutoff    1.56 Angstroem

   l    n(q)    QCUT    max X(q) W(low)/X(q) W(high)/X(q)  e(spline) 
   1     10    11.338     4.216    0.27E-04    0.12E-04    0.66E-07
   1     10    11.338     5.422    0.81E-04    0.24E-04    0.19E-06
   2     10    11.338    72.084    0.64E-04    0.21E-03    0.51E-06
   2     10    11.338    65.965    0.63E-04    0.21E-03    0.50E-06
   0     11    11.338    41.531    0.33E-04    0.54E-04    0.13E-06
   0     11    11.338    16.290    0.26E-04    0.41E-04    0.11E-06
 Optimization of the real space projectors (new method)

 maximal supplied QI-value         = 24.76
 optimisation between [QCUT,QGAM] = [ 11.39, 22.77] = [ 36.31,145.25] Ry 
 Optimized for a Real-space Cutoff    1.20 Angstroem

   l    n(q)    QCUT    max X(q) W(low)/X(q) W(high)/X(q)  e(spline) 
   0      8    11.387    20.381    0.89E-04    0.31E-03    0.27E-06
   0      8    11.387    15.268    0.93E-04    0.32E-03    0.29E-06
   1      8    11.387     5.964    0.53E-04    0.28E-03    0.29E-06
   1      8    11.387     5.382    0.37E-04    0.22E-03    0.26E-06
 Optimization of the real space projectors (new method)

 maximal supplied QI-value         = 24.76
 optimisation between [QCUT,QGAM] = [ 11.39, 22.77] = [ 36.31,145.25] Ry 
 Optimized for a Real-space Cutoff    1.20 Angstroem

   l    n(q)    QCUT    max X(q) W(low)/X(q) W(high)/X(q)  e(spline) 
   0      8    11.387    14.049    0.69E-04    0.23E-03    0.18E-06
   0      8    11.387     8.945    0.88E-04    0.30E-03    0.26E-06
   1      8    11.387     7.086    0.62E-04    0.27E-03    0.27E-06
   1      8    11.387     6.747    0.46E-04    0.23E-03    0.25E-06

 ----------------------------------------------------------------------------- 
|                                                                             |
|  ADVICE TO THIS USER RUNNING 'VASP/VAMP'   (HEAR YOUR MASTER'S VOICE ...):  |
|                                                                             |
|      You enforced a specific xc-type in the INCAR file,                     |
|      a different type was found on the POTCAR file                          |
|          I HOPE YOU KNOW, WHAT YOU ARE  DOING                               |
|                                                                             |
 ----------------------------------------------------------------------------- 

  PAW_PBE Li_sv 10Sep2004               :
 energy of atom  1       EATOM= -202.7858
 kinetic energy error for atom=    0.0143 (will be added to EATOM!!)
  PAW_PBE Ti_pv 07Sep2000               :
 energy of atom  2       EATOM=-1042.5995
 kinetic energy error for atom=    0.0024 (will be added to EATOM!!)
  PAW_PBE O 08Apr2002                   :
 energy of atom  3       EATOM= -432.3788
 kinetic energy error for atom=    0.0224 (will be added to EATOM!!)
  PAW_PBE F 08Apr2002                   :
 energy of atom  4       EATOM= -659.6475
 kinetic energy error for atom=    0.0354 (will be added to EATOM!!)
 
 
 POSCAR: config 55                               
  positions in direct lattice
  velocities in cartesian coordinates
 exchange correlation table for  LEXCH =       14
   RHO(1)=    0.500       N(1)  =     2000
   RHO(2)=  100.500       N(2)  =     4000

 VTST: version 3.2, (02/03/18)

 CHAIN: initializing optimizer
 
 OPT: Using VASP QUASI-newton optimizer
 CHAIN: Read ICHAIN            0
 
 POSCAR: config 55                               
  positions in direct lattice
  velocities in cartesian coordinates
 


--------------------------------------------------------------------------------------------------------


 ion  position               nearest neighbor table
   1  0.875  0.434  0.623- 104 1.97 108 1.99  79 2.05  66 2.13  41 2.80  49 2.80  13 2.81   5 2.82

   2  0.996  0.996  0.993- 118 1.87  68 1.88 103 1.90 171 2.03 212 2.04 130 2.05
   3  0.001  0.996  0.492-  67 1.83 119 1.84 172 1.95 193 1.96 213 1.98 131 2.04
   4  0.007  0.496  0.997-  89 1.84 117 1.85 138 1.95 132 1.97 214 2.02 194 2.04
   5  0.997  0.501  0.505-  66 1.87 104 1.89 215 1.92 223 1.93 173 1.97 137 1.99   1 2.82
   6  0.495  0.993  0.000- 101 1.83 121 1.85 140 1.96 133 1.98 216 2.03 174 2.03
   7  0.500  0.008  0.498- 112 1.77 191 1.91 134 1.92 139 1.93 175 1.93 225 2.02
   8  0.505  0.495  0.997- 120 1.88  90 1.89  70 1.89 192 2.03 135 2.04 217 2.06
   9  0.491  0.498  0.496- 102 1.80  69 1.86 224 1.97 218 1.98 136 2.01 176 2.09
  10  0.007  0.004  0.255-  91 1.84  67 1.87 219 1.94 227 1.98 130 2.00 197 2.06
  11  0.001  0.009  0.755-  68 1.80 113 1.85 177 1.95 198 1.99 131 2.04 228 2.05
  12  0.994  0.492  0.251- 122 1.81 107 1.85 137 1.96 132 1.97 178 2.03 220 2.04
  13  0.995  0.497  0.744-  66 1.85 108 1.86 226 1.93 221 1.95 138 1.99 179 2.00   1 2.81
  14  0.505  0.009  0.251- 114 1.82  92 1.84 133 1.93 139 1.99 195 2.00 231 2.07
  15  0.492  0.004  0.753- 105 1.81 115 1.84 140 1.94 134 2.01 232 2.01 180 2.04
  16  0.493  0.496  0.258-  69 1.83 106 1.84 229 1.96 222 2.01 135 2.03 181 2.05
  17  0.499  0.503  0.759-  70 1.80 116 1.87 196 1.96 182 1.97 230 2.03 136 2.08
  18  0.996  0.258  0.002- 117 1.83 110 1.88 141 1.93 146 1.99 183 2.01 212 2.02
  19  0.999  0.248  0.494-  74 1.89 213 2.01 184 2.02 142 2.04 202 2.05 223 2.05
  20  0.999  0.759  0.005- 118 1.81  71 1.86 203 1.96 185 1.98 148 2.05 214 2.06
  21  0.999  0.760  0.504- 119 1.81  72 1.85 204 1.95 186 1.96 147 2.01 215 2.08
  22  0.495  0.258  0.002- 120 1.81 109 1.84 150 1.96 143 1.98 187 2.04 216 2.07
  23  0.509  0.245  0.498-  93 1.79 112 1.90 144 1.94 149 1.95 224 1.98 199 2.00
  24  0.508  0.756  1.000-  94 1.83 121 1.84 152 1.95 145 1.99 217 2.02 200 2.03
  25  0.507  0.751  0.509-  73 1.79  95 1.83 225 1.96 218 1.96 201 2.01 151 2.08
  26  0.998  0.256  0.259-  74 1.78 122 1.85 209 1.97 188 1.99 219 2.04 141 2.06
  27  0.006  0.241  0.748- 113 1.81  96 1.83 146 1.97 142 1.97 226 2.07 210 2.08
  28  0.006  0.749  0.243-  71 1.82  97 1.84 220 1.94 227 1.99 211 2.06 147 2.07
  29  0.994  0.753  0.742-  72 1.83 111 1.83 228 1.93 221 2.01 189 2.02 148 2.03
  30  0.508  0.241  0.253-  98 1.82 114 1.83 143 1.94 149 1.97 229 2.03 205 2.03
  31  0.506  0.242  0.752-  99 1.84 115 1.84 150 1.94 144 1.98 206 2.01 230 2.03
  32  0.506  0.751  0.253- 100 1.79 151 1.93 231 1.94 145 1.94 222 1.95 207 2.00
  33  0.501  0.741  0.744- 116 1.81  73 1.84 190 1.94 208 1.97 152 2.03 232 2.07
  34  0.257  0.998  0.006-  75 1.84 101 1.86 246 1.94 233 1.97 171 2.02 157 2.04
  35  0.250  0.993  0.506- 128 1.83  76 1.85 172 1.94 191 1.99 234 2.02 156 2.03
  36  0.244  0.508  0.997- 123 1.82  89 1.85 159 1.94 153 1.98 192 2.03 245 2.04
  37  0.254  0.493  0.507-  77 1.86 127 1.87 102 1.87 158 2.05 235 2.05 173 2.05
  38  0.757  0.001  0.994- 103 1.79  81 1.88 236 1.97 249 1.97 174 2.05 154 2.06
  39  0.751  0.008  0.495-  80 1.84 124 1.84 193 1.92 175 1.99 155 2.01 250 2.04
  40  0.742  0.500  0.005-  90 1.80  78 1.86 237 1.97 247 1.97 194 2.05 161 2.08
  41  0.754  0.497  0.503- 104 1.88  79 1.89 248 1.94 238 1.97 176 1.97 160 1.99   1 2.80
  42  0.245  0.002  0.244-  75 1.84  91 1.85 239 1.94 252 1.97 156 2.04 195 2.07
  43  0.258  0.997  0.745-  76 1.84 105 1.84 253 1.93 240 1.97 157 2.02 177 2.03
  44  0.255  0.492  0.252- 129 1.83 106 1.84 158 1.94 153 1.98 241 2.04 178 2.04
  45  0.248  0.506  0.741-  77 1.79 125 1.83 196 1.97 179 1.97 251 2.03 159 2.06
  46  0.744  0.002  0.256-  92 1.85  80 1.86 256 1.96 242 1.97 197 2.00 154 2.01
  47  0.748  0.008  0.755-  81 1.82 126 1.84 180 1.95 198 1.97 257 2.05 155 2.07
  48  0.756  0.497  0.241-  78 1.82 107 1.83 243 1.97 254 1.97 181 2.03 160 2.10
  49  0.755  0.496  0.744- 108 1.86  79 1.88 255 1.93 244 1.96 182 1.99 161 2.00   1 2.80
  50  0.257  0.252  0.006- 109 1.84  82 1.85 245 1.94 233 1.97 168 2.02 183 2.06
  51  0.252  0.256  0.505- 127 1.82  83 1.86 184 1.94 199 1.97 167 2.04 234 2.06
  52  0.253  0.742  0.994- 123 1.82  86 1.84 200 1.95 185 1.97 162 2.03 246 2.04
  53  0.251  0.755  0.493-  85 1.83 128 1.86 201 1.95 186 1.97 235 2.00 163 2.05
  54  0.757  0.252  0.008- 110 1.81  84 1.86 236 1.95 247 1.96 187 2.04 170 2.05
  55  0.745  0.242  0.498- 124 1.82  93 1.86 169 1.94 202 1.96 164 2.00 248 2.06
  56  0.742  0.748  0.993-  94 1.82  88 1.84 237 1.96 249 1.96 203 2.02 165 2.05
  57  0.742  0.751  0.493-  95 1.81  87 1.86 250 1.94 238 1.99 204 2.02 166 2.03
  58  0.250  0.257  0.244- 129 1.83  82 1.83 205 1.98 188 1.98 167 2.03 239 2.04
  59  0.244  0.251  0.744-  83 1.83  96 1.85 251 1.94 240 1.98 168 2.04 206 2.05
  60  0.244  0.747  0.256-  97 1.83  85 1.84 241 1.94 252 1.98 162 2.03 207 2.06
  61  0.249  0.741  0.757- 125 1.82  86 1.84 189 1.94 208 1.98 163 2.03 253 2.04
  62  0.742  0.252  0.241-  84 1.80  98 1.84 254 1.95 242 1.96 209 2.02 169 2.09
  63  0.744  0.241  0.751- 126 1.82  99 1.84 170 1.95 164 2.01 210 2.03 255 2.07
  64  0.745  0.749  0.257-  87 1.82 100 1.90 243 1.95 256 1.96 211 1.98 165 2.03
  65  0.758  0.750  0.756- 111 1.81  88 1.84 257 1.93 244 2.00 190 2.03 166 2.05
  66  0.004  0.484  0.625-  13 1.85   5 1.87   1 2.13
  67  0.999  0.014  0.376-   3 1.83  10 1.87
  68  0.002  0.011  0.872-  11 1.80   2 1.88
  69  0.497  0.486  0.376-  16 1.83   9 1.86
  70  0.492  0.490  0.875-  17 1.80   8 1.89
  71  0.002  0.755  0.125-  28 1.82  20 1.86
  72  0.006  0.757  0.624-  29 1.83  21 1.85
  73  0.506  0.744  0.625-  25 1.79  33 1.84
  74  0.986  0.238  0.372-  26 1.78  19 1.89
  75  0.258  0.001  0.125-  42 1.84  34 1.84
  76  0.259  0.001  0.625-  43 1.84  35 1.85
  77  0.234  0.493  0.626-  45 1.79  37 1.86
  78  0.745  0.482  0.125-  48 1.82  40 1.86
  79  0.749  0.478  0.624-  49 1.88  41 1.89   1 2.05
  80  0.747  0.012  0.376-  39 1.84  46 1.86
  81  0.743  0.010  0.873-  47 1.82  38 1.88
  82  0.242  0.251  0.126-  58 1.83  50 1.85
  83  0.250  0.251  0.626-  59 1.83  51 1.86
  84  0.736  0.269  0.126-  62 1.80  54 1.86
  85  0.258  0.744  0.375-  53 1.83  60 1.84
  86  0.255  0.751  0.875-  61 1.84  52 1.84
  87  0.755  0.738  0.374-  64 1.82  57 1.86
  88  0.752  0.739  0.875-  65 1.84  56 1.84
  89  0.125  0.509  0.989-   4 1.84  36 1.85
  90  0.626  0.511  0.994-  40 1.80   8 1.89
  91  0.125  0.007  0.248-  10 1.84  42 1.85
  92  0.624  0.007  0.246-  14 1.84  46 1.85
  93  0.625  0.248  0.490-  23 1.79  55 1.86
  94  0.625  0.736  1.000-  56 1.82  24 1.83
  95  0.625  0.753  0.492-  57 1.81  25 1.83
  96  0.125  0.243  0.753-  27 1.83  59 1.85
  97  0.125  0.747  0.255-  60 1.83  28 1.84
  98  0.626  0.240  0.265-  30 1.82  62 1.84
  99  0.626  0.246  0.753-  63 1.84  31 1.84
 100  0.623  0.749  0.255-  32 1.79  64 1.90
 101  0.376  0.993  0.990-   6 1.83  34 1.86
 102  0.375  0.498  0.509-   9 1.80  37 1.87
 103  0.873  0.996  0.997-  38 1.79   2 1.90
 104  0.875  0.488  0.507-  41 1.88   5 1.89   1 1.97
 105  0.376  0.989  0.761-  15 1.81  43 1.84
 106  0.374  0.492  0.246-  16 1.84  44 1.84
 107  0.875  0.493  0.247-  48 1.83  12 1.85
 108  0.875  0.491  0.739-  13 1.86  49 1.86   1 1.99
 109  0.376  0.254  0.008-  50 1.84  22 1.84
 110  0.874  0.255  0.010-  54 1.81  18 1.88
 111  0.875  0.751  0.745-  65 1.81  29 1.83
 112  0.502  0.122  0.487-   7 1.77  23 1.90
 113  0.989  0.126  0.734-  27 1.81  11 1.85
 114  0.490  0.125  0.269-  14 1.82  30 1.83
 115  0.495  0.123  0.757-  15 1.84  31 1.84
 116  0.494  0.624  0.757-  33 1.81  17 1.87
 117  0.005  0.376  0.993-  18 1.83   4 1.85
 118  0.008  0.875  0.992-  20 1.81   2 1.87
 119  0.007  0.876  0.489-  21 1.81   3 1.84
 120  0.509  0.374  0.013-  22 1.81   8 1.88
 121  0.510  0.875  0.011-  24 1.84   6 1.85
 122  0.010  0.376  0.257-  12 1.81  26 1.85
 123  0.262  0.625  0.004-  52 1.82  36 1.82
 124  0.752  0.126  0.514-  55 1.82  39 1.84
 125  0.255  0.624  0.748-  61 1.82  45 1.83
 126  0.758  0.125  0.734-  63 1.82  47 1.84
 127  0.245  0.373  0.493-  51 1.82  37 1.87
 128  0.245  0.875  0.498-  35 1.83  53 1.86
 129  0.239  0.374  0.258-  44 1.83  58 1.83
 130  0.997  0.993  0.126-  10 2.00   2 2.05
 131  0.002  0.986  0.625-   3 2.04  11 2.04
 132  0.006  0.501  0.124-  12 1.97   4 1.97
 133  0.489  0.015  0.127-  14 1.93   6 1.98
 134  0.491  0.005  0.623-   7 1.92  15 2.01
 135  0.506  0.513  0.128-  16 2.03   8 2.04
 136  0.511  0.507  0.625-   9 2.01  17 2.08
 137  0.996  0.511  0.376-  12 1.96   5 1.99
 138  0.988  0.510  0.872-   4 1.95  13 1.99
 139  0.509  0.981  0.376-   7 1.93  14 1.99
 140  0.519  0.991  0.875-  15 1.94   6 1.96
 141  0.013  0.256  0.126-  18 1.93  26 2.06
 142  0.003  0.272  0.624-  27 1.97  19 2.04
 143  0.513  0.232  0.127-  30 1.94  22 1.98
 144  0.503  0.238  0.623-  23 1.94  31 1.98
 145  0.499  0.738  0.127-  32 1.94  24 1.99
 146  0.990  0.240  0.875-  27 1.97  18 1.99
 147  0.990  0.741  0.376-  21 2.01  28 2.07
 148  0.997  0.742  0.873-  29 2.03  20 2.05
 149  0.489  0.270  0.376-  23 1.95  30 1.97
 150  0.496  0.261  0.875-  31 1.94  22 1.96
 151  0.489  0.763  0.376-  32 1.93  25 2.08
 152  0.495  0.759  0.874-  24 1.95  33 2.03
 153  0.239  0.493  0.125-  44 1.98  36 1.98
 154  0.752  0.989  0.126-  46 2.01  38 2.06
 155  0.750  0.986  0.623-  39 2.01  47 2.07
 156  0.248  0.003  0.375-  35 2.03  42 2.04
 157  0.240  0.995  0.874-  43 2.02  34 2.04
 158  0.252  0.513  0.376-  44 1.94  37 2.05
 159  0.264  0.500  0.874-  36 1.94  45 2.06
 160  0.753  0.516  0.376-  41 1.99  48 2.10
 161  0.758  0.515  0.873-  49 2.00  40 2.08
 162  0.248  0.756  0.125-  60 2.03  52 2.03
 163  0.245  0.752  0.625-  61 2.03  53 2.05
 164  0.744  0.271  0.624-  55 2.00  63 2.01
 165  0.748  0.760  0.126-  64 2.03  56 2.05
 166  0.743  0.758  0.624-  57 2.03  65 2.05
 167  0.260  0.243  0.374-  58 2.03  51 2.04
 168  0.256  0.250  0.875-  50 2.02  59 2.04
 169  0.766  0.234  0.374-  55 1.94  62 2.09
 170  0.758  0.234  0.876-  63 1.95  54 2.05
 171  0.126  0.007  0.005-  34 2.02   2 2.03
 172  0.126  0.014  0.503-  35 1.94   3 1.95
 173  0.123  0.512  0.491-   5 1.97  37 2.05
 174  0.625  0.008  0.011-   6 2.03  38 2.05
 175  0.624  0.993  0.507-   7 1.93  39 1.99
 176  0.626  0.502  0.497-  41 1.97   9 2.09
 177  0.127  0.009  0.744-  11 1.95  43 2.03
 178  0.124  0.512  0.255-  12 2.03  44 2.04
 179  0.123  0.502  0.766-  45 1.97  13 2.00
 180  0.624  0.002  0.737-  47 1.95  15 2.04
 181  0.625  0.504  0.255-  48 2.03  16 2.05
 182  0.627  0.500  0.757-  17 1.97  49 1.99
 183  0.125  0.245  0.990-  18 2.01  50 2.06
 184  0.129  0.234  0.495-  51 1.94  19 2.02
 185  0.125  0.738  0.997-  52 1.97  20 1.98
 186  0.124  0.740  0.492-  21 1.96  53 1.97
 187  0.626  0.243  0.990-  54 2.04  22 2.04
 188  0.125  0.234  0.260-  58 1.98  26 1.99
 189  0.123  0.744  0.756-  61 1.94  29 2.02
 190  0.626  0.745  0.755-  33 1.94  65 2.03
 191  0.377  0.996  0.488-   7 1.91  35 1.99
 192  0.374  0.490  0.011-  36 2.03   8 2.03
 193  0.874  0.993  0.504-  39 1.92   3 1.96
 194  0.874  0.493  0.003-   4 2.04  40 2.05
 195  0.377  0.991  0.260-  14 2.00  42 2.07
 196  0.375  0.491  0.735-  17 1.96  45 1.97
 197  0.873  0.996  0.250-  46 2.00  10 2.06
 198  0.874  0.987  0.747-  47 1.97  11 1.99
 199  0.380  0.251  0.503-  51 1.97  23 2.00
 200  0.377  0.763  0.006-  52 1.95  24 2.03
 201  0.377  0.750  0.507-  53 1.95  25 2.01
 202  0.869  0.267  0.513-  55 1.96  19 2.05
 203  0.872  0.761  0.002-  20 1.96  56 2.02
 204  0.873  0.753  0.507-  21 1.95  57 2.02
 205  0.378  0.261  0.241-  58 1.98  30 2.03
 206  0.377  0.255  0.748-  31 2.01  59 2.05
 207  0.377  0.753  0.244-  32 2.00  60 2.06
 208  0.375  0.761  0.745-  33 1.97  61 1.98
 209  0.873  0.261  0.237-  26 1.97  62 2.02
 210  0.874  0.264  0.741-  63 2.03  27 2.08
 211  0.873  0.753  0.246-  64 1.98  28 2.06
 212  0.998  0.127  0.009-  18 2.02   2 2.04
 213  0.987  0.120  0.520-   3 1.98  19 2.01
 214  0.988  0.626  0.002-   4 2.02  20 2.06
 215  0.992  0.626  0.508-   5 1.92  21 2.08
 216  0.499  0.124  0.990-   6 2.03  22 2.07
 217  0.485  0.627  0.994-  24 2.02   8 2.06
 218  0.501  0.626  0.489-  25 1.96   9 1.98
 219  0.988  0.127  0.235-  10 1.94  26 2.04
 220  0.993  0.624  0.246-  28 1.94  12 2.04
 221  0.001  0.623  0.742-  13 1.95  29 2.01
 222  0.496  0.626  0.264-  32 1.95  16 2.01
 223  0.014  0.379  0.484-   5 1.93  19 2.05
 224  0.503  0.372  0.515-   9 1.97  23 1.98
 225  0.496  0.877  0.508-  25 1.96   7 2.02
 226  0.005  0.374  0.765-  13 1.93  27 2.07
 227  1.000  0.876  0.260-  10 1.98  28 1.99
 228  0.007  0.876  0.758-  29 1.93  11 2.05
 229  0.510  0.372  0.235-  16 1.96  30 2.03
 230  0.503  0.373  0.738-  17 2.03  31 2.03
 231  0.501  0.876  0.238-  32 1.94  14 2.07
 232  0.509  0.875  0.745-  15 2.01  33 2.07
 233  0.253  0.124  0.995-  34 1.97  50 1.97
 234  0.261  0.123  0.499-  35 2.02  51 2.06
 235  0.253  0.626  0.508-  53 2.00  37 2.05
 236  0.751  0.126  0.017-  54 1.95  38 1.97
 237  0.765  0.625  0.015-  56 1.96  40 1.97
 238  0.752  0.624  0.514-  41 1.97  57 1.99
 239  0.265  0.126  0.251-  42 1.94  58 2.04
 240  0.260  0.124  0.756-  43 1.97  59 1.98
 241  0.256  0.623  0.239-  60 1.94  44 2.04
 242  0.761  0.127  0.234-  62 1.96  46 1.97
 243  0.752  0.625  0.234-  64 1.95  48 1.97
 244  0.749  0.623  0.735-  49 1.96  65 2.00
 245  0.243  0.376  0.996-  50 1.94  36 2.04
 246  0.239  0.873  0.002-  34 1.94  52 2.04
 247  0.743  0.375  0.978-  54 1.96  40 1.97
 248  0.743  0.374  0.478-  41 1.94  55 2.06
 249  0.737  0.874  0.992-  56 1.96  38 1.97
 250  0.752  0.876  0.489-  57 1.94  39 2.04
 251  0.246  0.376  0.759-  59 1.94  45 2.03
 252  0.249  0.875  0.253-  42 1.97  60 1.98
 253  0.239  0.873  0.748-  43 1.93  61 2.04
 254  0.742  0.374  0.273-  62 1.95  48 1.97
 255  0.746  0.374  0.769-  49 1.93  63 2.07
 256  0.748  0.875  0.260-  64 1.96  46 1.96
 257  0.744  0.875  0.757-  65 1.93  47 2.05
 

IMPORTANT INFORMATION: All symmetrisations will be switched off!
NOSYMM: (Re-)initialisation of all symmetry stuff for point group C_1.

 
 
 KPOINTS: Title                                   

Automatic generation of k-mesh.
Space group operators:
 irot       det(A)        alpha          n_x          n_y          n_z        tau_x        tau_y        tau_z
    1     1.000000     0.000001     1.000000     0.000000     0.000000     0.000000     0.000000     0.000000
 
 Subroutine IBZKPT returns following result:
 ===========================================
 
 Found      4 irreducible k-points:
 
 Following reciprocal coordinates:
            Coordinates               Weight
  0.250000  0.250000  0.250000      2.000000
 -0.250000  0.250000  0.250000      2.000000
  0.250000 -0.250000  0.250000      2.000000
 -0.250000 -0.250000  0.250000      2.000000
 
 Following cartesian coordinates:
            Coordinates               Weight
  0.016206  0.016206  0.016206      2.000000
 -0.016206  0.016206  0.016206      2.000000
  0.016206 -0.016206  0.016206      2.000000
 -0.016206 -0.016206  0.016206      2.000000
 


--------------------------------------------------------------------------------------------------------




 Dimension of arrays:
   k-points           NKPTS =      4   k-points in BZ     NKDIM =      4   number of bands    NBANDS=   1164
   number of dos      NEDOS =   3001   number of ions     NIONS =    257
   non local maximal  LDIM  =      6   non local SUM 2l+1 LMDIM =     18
   total plane-waves  NPLWV = ******
   max r-space proj   IRMAX =   7595   max aug-charges    IRDMAX= 146383
   dimension x,y,z NGX =   120 NGY =  120 NGZ =  120
   dimension x,y,z NGXF=   240 NGYF=  240 NGZF=  240
   support grid    NGXF=   480 NGYF=  480 NGZF=  480
   ions per type =               1  64  64 128
   NGX,Y,Z   is equivalent  to a cutoff of  12.93, 12.93, 12.93 a.u.
   NGXF,Y,Z  is equivalent  to a cutoff of  25.86, 25.86, 25.86 a.u.

 SYSTEM =  LTO                                     
 POSCAR =  config 55                               

 Startparameter for this run:
   NWRITE =      2    write-flag & timer
   PREC   = accura    normal or accurate (medium, high low for compatibility)
   ISTART =      1    job   : 0-new  1-cont  2-samecut
   ICHARG =      0    charge: 1-file 2-atom 10-const
   ISPIN  =      2    spin polarized calculation?
   LNONCOLLINEAR =      F non collinear calculations
   LSORBIT =      F    spin-orbit coupling
   INIWAV =      1    electr: 0-lowe 1-rand  2-diag
   LASPH  =      T    aspherical Exc in radial PAW
   METAGGA=      F    non-selfconsistent MetaGGA calc.

 Electronic Relaxation 1
   ENCUT  =  500.0 eV  36.75 Ry    6.06 a.u.  28.13 28.13 28.13*2*pi/ulx,y,z
   ENINI  =  500.0     initial cutoff
   ENAUG  =  628.9 eV  augmentation charge cutoff
   NELM   =     60;   NELMIN=  2; NELMDL=  0     # of ELM steps 
   EDIFF  = 0.1E-05   stopping-criterion for ELM
   LREAL  =      T    real-space projection
   NLSPLINE    = F    spline interpolate recip. space projectors
   LCOMPAT=      F    compatible to vasp.4.4
   GGA_COMPAT  = T    GGA compatible to vasp.4.4-vasp.4.6
   LMAXPAW     = -100 max onsite density
   LMAXMIX     =    4 max onsite mixed and CHGCAR
   VOSKOWN=      0    Vosko Wilk Nusair interpolation
   ROPT   =   -0.00010  -0.00010  -0.00010  -0.00010
 Ionic relaxation
   EDIFFG = -.5E-01   stopping-criterion for IOM
   NSW    =    100    number of steps for IOM
   NBLOCK =      1;   KBLOCK =    100    inner block; outer block 
   IBRION =      1    ionic relax: 0-MD 1-quasi-New 2-CG
   NFREE  =      0    steps in history (QN), initial steepest desc. (CG)
   ISIF   =      2    stress and relaxation
   IWAVPR =     11    prediction:  0-non 1-charg 2-wave 3-comb
   ISYM   =      0    0-nonsym 1-usesym 2-fastsym
   LCORR  =      T    Harris-Foulkes like correction to forces

   POTIM  = 0.5000    time-step for ionic-motion
   TEIN   =    0.0    initial temperature
   TEBEG  =    0.0;   TEEND  =   0.0 temperature during run
   SMASS  =  -3.00    Nose mass-parameter (am)
   estimated Nose-frequenzy (Omega)   =  0.10E-29 period in steps =****** mass=  -0.544E-26a.u.
   SCALEE = 1.0000    scale energy and forces
   NPACO  =    256;   APACO  = 16.0  distance and # of slots for P.C.
   PSTRESS=    0.0 pullay stress

  Mass of Ions in am
   POMASS =   7.01 47.88 16.00 19.00
  Ionic Valenz
   ZVAL   =   3.00 10.00  6.00  7.00
  Atomic Wigner-Seitz radii
   RWIGS  =  -1.00 -1.00 -1.00 -1.00
  virtual crystal weights 
   VCA    =   1.00  1.00  1.00  1.00
   NELECT =    1923.0000    total number of electrons
   NUPDOWN=       1.0000    fix difference up-down

 DOS related values:
   EMIN   =  10.00;   EMAX   =-10.00  energy-range for DOS
   EFERMI =   0.00
   ISMEAR =     0;   SIGMA  =   0.01  broadening in eV -4-tet -1-fermi 0-gaus

 Electronic relaxation 2 (details)
   IALGO  =     38    algorithm
   LDIAG  =      T    sub-space diagonalisation (order eigenvalues)
   LSUBROT=      F    optimize rotation matrix (better conditioning)
   TURBO    =      0    0=normal 1=particle mesh
   IRESTART =      0    0=no restart 2=restart with 2 vectors
   NREBOOT  =      0    no. of reboots
   NMIN     =      0    reboot dimension
   EREF     =   0.00    reference energy to select bands
   IMIX   =      4    mixing-type and parameters
     AMIX     =   0.40;   BMIX     =  1.00
     AMIX_MAG =   1.60;   BMIX_MAG =  1.00
     AMIN     =   0.10
     WC   =   100.;   INIMIX=   1;  MIXPRE=   1;  MAXMIX= -45

 Intra band minimization:
   WEIMIN = 0.0010     energy-eigenvalue tresh-hold
   EBREAK =  0.21E-09  absolut break condition
   DEPER  =   0.30     relativ break condition  

   TIME   =   0.40     timestep for ELM

  volume/ion in A,a.u.               =      14.28        96.39
  Fermi-wavevector in a.u.,A,eV,Ry     =   1.319690  2.493853 23.695660  1.741582
  Thomas-Fermi vector in A             =   2.449570
 
 Write flags
   LWAVE        =      T    write WAVECAR
   LDOWNSAMPLE  =      F    k-point downsampling of WAVECAR
   LCHARG       =      T    write CHGCAR
   LVTOT        =      F    write LOCPOT, total local potential
   LVHAR        =      F    write LOCPOT, Hartree potential only
   LELF         =      F    write electronic localiz. function (ELF)
   LORBIT       =     11    0 simple, 1 ext, 2 COOP (PROOUT), +10 PAW based schemes


 Dipole corrections
   LMONO  =      F    monopole corrections only (constant potential shift)
   LDIPOL =      F    correct potential (dipole corrections)
   IDIPOL =      0    1-x, 2-y, 3-z, 4-all directions 
   EPSILON=  1.0000000 bulk dielectric constant

 LDA+U is selected, type is set to LDAUTYPE =  2
   angular momentum for each species LDAUL =    -1    2   -1   -1
   U (eV)           for each species LDAUU =   0.0  4.2  0.0  0.0
   J (eV)           for each species LDAUJ =   0.0  0.0  0.0  0.0
 Exchange correlation treatment:
   GGA     =    PS    GGA type
   LEXCH   =    14    internal setting for exchange type
   VOSKOWN=      0    Vosko Wilk Nusair interpolation
   LHFCALC =     F    Hartree Fock is set to
   LHFONE  =     F    Hartree Fock one center treatment
   AEXX    =    0.0000 exact exchange contribution

 Linear response parameters
   LEPSILON=     F    determine dielectric tensor
   LRPA    =     F    only Hartree local field effects (RPA)
   LNABLA  =     F    use nabla operator in PAW spheres
   LVEL    =     F    velocity operator in full k-point grid
   LINTERFAST=   F  fast interpolation
   KINTER  =     0    interpolate to denser k-point grid
   CSHIFT  =0.1000    complex shift for real part using Kramers Kronig
   OMEGAMAX=  -1.0    maximum frequency
   DEG_THRESHOLD= 0.2000000E-02 threshold for treating states as degnerate
   RTIME   =   -0.100 relaxation time in fs
  (WPLASMAI=    0.000 imaginary part of plasma frequency in eV, 0.658/RTIME)
   DFIELD  = 0.0000000 0.0000000 0.0000000 field for delta impulse in time
 
 Orbital magnetization related:
   ORBITALMAG=     F  switch on orbital magnetization
   LCHIMAG   =     F  perturbation theory with respect to B field
   DQ        =  0.001000  dq finite difference perturbation B field
   LLRAUG    =     F  two centre corrections for induced B field



--------------------------------------------------------------------------------------------------------


 quasi-Newton-method for relaxation of ions
 charge density and potential will be updated during run
 spin polarized calculation
 Variant of blocked Davidson
 Davidson routine will perform the subspace rotation
 perform sub-space diagonalisation
    after iterative eigenvector-optimisation
 modified Broyden-mixing scheme, WC =      100.0
 initial mixing is a Kerker type mixing with AMIX =  0.4000 and BMIX =      1.0000
 Hartree-type preconditioning will be used
 using additional bands          202
 real space projection scheme for non local part
 use partial core corrections
 calculate Harris-corrections to forces 
   (improved forces if not selfconsistent)
 use gradient corrections 
 use of overlap-Matrix (Vanderbilt PP)
 Gauss-broadening in eV      SIGMA  =   0.01


--------------------------------------------------------------------------------------------------------


  energy-cutoff  :      500.00
  volume of cell :     3671.03
      direct lattice vectors                 reciprocal lattice vectors
    15.426331000  0.000000000  0.000000000     0.064824228  0.000000000  0.000000000
     0.000000000 15.426331000  0.000000000     0.000000000  0.064824228  0.000000000
     0.000000000  0.000000000 15.426331000     0.000000000  0.000000000  0.064824228

  length of vectors
    15.426331000 15.426331000 15.426331000     0.064824228  0.064824228  0.064824228


 
 old parameters found on file WAVECAR:
  energy-cutoff  :      500.00
  volume of cell :     3671.03
      direct lattice vectors                 reciprocal lattice vectors
    15.426331000  0.000000000  0.000000000     0.064824228  0.000000000  0.000000000
     0.000000000 15.426331000  0.000000000     0.000000000  0.064824228  0.000000000
     0.000000000  0.000000000 15.426331000     0.000000000  0.000000000  0.064824228

  length of vectors

 
 k-points in units of 2pi/SCALE and weight: Title                                   
   0.01620606  0.01620606  0.01620606       0.250
  -0.01620606  0.01620606  0.01620606       0.250
   0.01620606 -0.01620606  0.01620606       0.250
  -0.01620606 -0.01620606  0.01620606       0.250
 
 k-points in reciprocal lattice and weights: Title                                   
   0.25000000  0.25000000  0.25000000       0.250
  -0.25000000  0.25000000  0.25000000       0.250
   0.25000000 -0.25000000  0.25000000       0.250
  -0.25000000 -0.25000000  0.25000000       0.250
 
 position of ions in fractional coordinates (direct lattice) 
   0.87475161  0.43436754  0.62283567
   0.99575534  0.99556452  0.99301850
   0.00088662  0.99552624  0.49249205
   0.00652601  0.49603720  0.99658489
   0.99689306  0.50124756  0.50485033
   0.49463423  0.99321220  0.00026813
   0.49998258  0.00802975  0.49839739
   0.50474326  0.49464803  0.99677768
   0.49115609  0.49766697  0.49598500
   0.00657432  0.00412763  0.25517745
   0.00124559  0.00898881  0.75529123
   0.99435163  0.49184860  0.25096397
   0.99539547  0.49712887  0.74382492
   0.50529388  0.00921484  0.25079024
   0.49222187  0.00390478  0.75299124
   0.49282477  0.49551853  0.25774944
   0.49923707  0.50306634  0.75904594
   0.99567856  0.25784612  0.00219011
   0.99875207  0.24763739  0.49420695
   0.99871370  0.75870997  0.00482505
   0.99893948  0.76016522  0.50448060
   0.49545810  0.25799232  0.00245446
   0.50904331  0.24480568  0.49801893
   0.50769320  0.75579434  0.99997436
   0.50712831  0.75099289  0.50889601
   0.99841140  0.25634648  0.25919081
   0.00634129  0.24114689  0.74820120
   0.00648335  0.74879822  0.24266891
   0.99358406  0.75307220  0.74195790
   0.50816292  0.24132116  0.25254444
   0.50625823  0.24184417  0.75160762
   0.50621011  0.75121017  0.25253475
   0.50125214  0.74076644  0.74419377
   0.25677324  0.99752399  0.00578444
   0.24995674  0.99345525  0.50640348
   0.24433690  0.50810721  0.99749711
   0.25401051  0.49315283  0.50716395
   0.75672467  0.00059492  0.99373795
   0.75112722  0.00825627  0.49477197
   0.74189396  0.49970219  0.00548023
   0.75373377  0.49680005  0.50311571
   0.24475007  0.00242718  0.24353553
   0.25808983  0.99691923  0.74457347
   0.25496253  0.49158237  0.25186960
   0.24815193  0.50586622  0.74090180
   0.74388139  0.00218440  0.25553335
   0.74844251  0.00763355  0.75527846
   0.75591654  0.49736391  0.24115755
   0.75508100  0.49604014  0.74446493
   0.25705672  0.25168600  0.00648137
   0.25205487  0.25610098  0.50537209
   0.25273959  0.74212408  0.99412333
   0.25110545  0.75477968  0.49294549
   0.75679056  0.25222860  0.00800052
   0.74519272  0.24234096  0.49759249
   0.74201780  0.74753576  0.99342399
   0.74214243  0.75073006  0.49308322
   0.25034241  0.25749619  0.24396875
   0.24403057  0.25065167  0.74410968
   0.24361359  0.74734057  0.25626291
   0.24902796  0.74147118  0.75671192
   0.74194020  0.25199191  0.24139288
   0.74436058  0.24061167  0.75078754
   0.74541833  0.74858464  0.25696923
   0.75773955  0.75026522  0.75633206
   0.00378777  0.48423300  0.62496981
   0.99855476  0.01412664  0.37550119
   0.00218519  0.01115539  0.87201078
   0.49667271  0.48623243  0.37620102
   0.49160507  0.49039846  0.87475522
   0.00208274  0.75458606  0.12503569
   0.00597176  0.75724690  0.62412161
   0.50608232  0.74379318  0.62485935
   0.98627110  0.23813728  0.37241440
   0.25820016  0.00098949  0.12519356
   0.25916267  0.00105981  0.62542853
   0.23427948  0.49319670  0.62633811
   0.74511032  0.48197531  0.12471023
   0.74942144  0.47833549  0.62427487
   0.74722966  0.01213369  0.37593314
   0.74346933  0.01049545  0.87305886
   0.24219694  0.25092710  0.12568447
   0.25007910  0.25124690  0.62581264
   0.73628802  0.26863161  0.12580838
   0.25766877  0.74436090  0.37492469
   0.25537875  0.75052130  0.87527346
   0.75537808  0.73751237  0.37419881
   0.75231070  0.73883182  0.87491740
   0.12482725  0.50940349  0.98895588
   0.62614358  0.51138678  0.99389368
   0.12529773  0.00711408  0.24817604
   0.62439058  0.00680055  0.24629509
   0.62504730  0.24835911  0.49016720
   0.62461538  0.73592357  0.99978240
   0.62457689  0.75283494  0.49173795
   0.12453897  0.24315189  0.75298119
   0.12506035  0.74709552  0.25518607
   0.62558621  0.24033141  0.26468305
   0.62553905  0.24572344  0.75340639
   0.62252075  0.74901767  0.25456460
   0.37635275  0.99313487  0.98962679
   0.37520616  0.49831562  0.50903171
   0.87262619  0.99581857  0.99666060
   0.87521201  0.48829257  0.50713442
   0.37618606  0.98898766  0.76103680
   0.37419825  0.49166694  0.24581305
   0.87456538  0.49282435  0.24711235
   0.87528592  0.49072086  0.73908026
   0.37618668  0.25361054  0.00833000
   0.87385587  0.25527066  0.00989034
   0.87477622  0.75138677  0.74474974
   0.50196754  0.12215617  0.48681056
   0.98882912  0.12624777  0.73420118
   0.49048012  0.12503371  0.26916375
   0.49520978  0.12305079  0.75690418
   0.49433457  0.62440122  0.75664130
   0.00518229  0.37591164  0.99346905
   0.00750745  0.87495073  0.99192712
   0.00669547  0.87616946  0.48891974
   0.50880752  0.37396904  0.01333144
   0.50994533  0.87459459  0.01107989
   0.01041678  0.37550904  0.25676354
   0.26159628  0.62488545  0.00418457
   0.75229864  0.12577983  0.51416610
   0.25542019  0.62419774  0.74770296
   0.75790924  0.12489406  0.73415822
   0.24517547  0.37343538  0.49250684
   0.24518153  0.87516559  0.49840910
   0.23854143  0.37449247  0.25809597
   0.99711963  0.99301274  0.12608104
   0.00190531  0.98638773  0.62467852
   0.00625136  0.50051465  0.12416818
   0.48915735  0.01464902  0.12654876
   0.49085840  0.00492086  0.62281065
   0.50582944  0.51256114  0.12803245
   0.51110395  0.50699057  0.62469887
   0.99579307  0.51127121  0.37621457
   0.98821612  0.50999789  0.87203927
   0.50938957  0.98139072  0.37642836
   0.51882611  0.99074343  0.87526636
   0.01253292  0.25596124  0.12629225
   0.00252109  0.27155476  0.62431687
   0.51260456  0.23154601  0.12720258
   0.50261293  0.23783406  0.62317155
   0.49920037  0.73756952  0.12743058
   0.98982229  0.23959757  0.87464267
   0.99046302  0.74113633  0.37558132
   0.99738169  0.74187157  0.87313143
   0.48909278  0.26961149  0.37561789
   0.49555799  0.26089553  0.87513011
   0.48909941  0.76259468  0.37571659
   0.49534299  0.75913298  0.87445864
   0.23938761  0.49269341  0.12476437
   0.75153894  0.98906010  0.12642279
   0.75027467  0.98585213  0.62294257
   0.24772616  0.00272960  0.37547290
   0.24018077  0.99539797  0.87441822
   0.25214905  0.51252619  0.37583502
   0.26401938  0.49972701  0.87350657
   0.75256479  0.51613572  0.37567060
   0.75794910  0.51471048  0.87271477
   0.24844346  0.75557509  0.12513966
   0.24471446  0.75249302  0.62542224
   0.74379379  0.27092938  0.62378769
   0.74835773  0.76006903  0.12574211
   0.74296711  0.75787420  0.62420160
   0.25959196  0.24261193  0.37414087
   0.25624169  0.24986884  0.87547001
   0.76568485  0.23430773  0.37363170
   0.75825545  0.23383824  0.87609773
   0.12615704  0.00726215  0.00479738
   0.12568353  0.01375866  0.50310740
   0.12324019  0.51183971  0.49106648
   0.62485132  0.00799486  0.01087194
   0.62400044  0.99287315  0.50741365
   0.62626688  0.50236411  0.49688075
   0.12724970  0.00897127  0.74379848
   0.12416795  0.51201859  0.25479695
   0.12296006  0.50167022  0.76622533
   0.62361047  0.00209469  0.73678445
   0.62541934  0.50436096  0.25510598
   0.62678257  0.49968292  0.75727404
   0.12494540  0.24459775  0.99027960
   0.12903320  0.23378747  0.49492086
   0.12518205  0.73794676  0.99697588
   0.12394416  0.74041241  0.49168216
   0.62636635  0.24315714  0.98956937
   0.12514349  0.23355352  0.26036723
   0.12332307  0.74427896  0.75568773
   0.62625921  0.74532560  0.75487959
   0.37740948  0.99642944  0.48844169
   0.37374860  0.48995055  0.01122340
   0.87435208  0.99315540  0.50426688
   0.87427759  0.49259280  0.00281469
   0.37725336  0.99134799  0.26036611
   0.37471585  0.49093520  0.73541551
   0.87313922  0.99599308  0.24997055
   0.87413242  0.98745478  0.74689308
   0.37988703  0.25118243  0.50269090
   0.37660871  0.76270923  0.00555772
   0.37689444  0.74968801  0.50667569
   0.86882781  0.26710326  0.51260406
   0.87189401  0.76102316  0.00175621
   0.87256404  0.75310339  0.50734541
   0.37840257  0.26122087  0.24147068
   0.37673055  0.25538600  0.74845112
   0.37676488  0.75282326  0.24449652
   0.37518615  0.76133425  0.74451120
   0.87252515  0.26130961  0.23699349
   0.87362546  0.26413579  0.74147802
   0.87303001  0.75323824  0.24583540
   0.99751994  0.12679721  0.00899237
   0.98713780  0.12022041  0.52049130
   0.98807595  0.62550373  0.00179820
   0.99180435  0.62573722  0.50765427
   0.49866711  0.12416271  0.99005115
   0.48519519  0.62673684  0.99401299
   0.50059448  0.62576776  0.48852349
   0.98824311  0.12713177  0.23464051
   0.99308654  0.62393100  0.24641296
   0.00082575  0.62312282  0.74152734
   0.49554692  0.62571968  0.26376108
   0.01416121  0.37925157  0.48440954
   0.50290113  0.37189287  0.51507915
   0.49605133  0.87737776  0.50774663
   0.00498396  0.37433400  0.76527106
   0.99957055  0.87619363  0.26015224
   0.00723612  0.87618593  0.75832641
   0.50992370  0.37151054  0.23530138
   0.50305946  0.37300525  0.73809311
   0.50129706  0.87595424  0.23799369
   0.50881952  0.87459187  0.74508069
   0.25300990  0.12441431  0.99476078
   0.26149354  0.12337179  0.49885185
   0.25257533  0.62604943  0.50798049
   0.75123103  0.12602009  0.01661360
   0.76524021  0.62474732  0.01543087
   0.75232573  0.62392020  0.51436178
   0.26453625  0.12621484  0.25124379
   0.25960720  0.12400692  0.75636411
   0.25581137  0.62337999  0.23928703
   0.76147300  0.12665373  0.23395112
   0.75153130  0.62460250  0.23385950
   0.74882506  0.62261377  0.73450266
   0.24300908  0.37614101  0.99576646
   0.23870798  0.87332394  0.00167790
   0.74253907  0.37492637  0.97783165
   0.74277908  0.37412647  0.47790932
   0.73726515  0.87438976  0.99207811
   0.75166033  0.87602837  0.48940133
   0.24635161  0.37576671  0.75868702
   0.24945319  0.87535422  0.25325331
   0.23863594  0.87314514  0.74763572
   0.74222910  0.37444858  0.27324963
   0.74617261  0.37358247  0.76914462
   0.74767886  0.87532666  0.26039378
   0.74360390  0.87485446  0.75669721
 
 position of ions in cartesian coordinates  (Angst):
  13.49420792  6.70069741  9.60806922
  15.36085142 15.35790775 15.31863215
   0.01367723 15.35731734  7.59734532
   0.10067233  7.65203397 15.37364833
  15.37840237  7.73241079  7.78798831
   7.63039132 15.32162011  0.00413632
   7.71289678  0.12386965  7.68844318
   7.78633654  7.63060425 15.37662239
   7.57673642  7.67717539  7.65122884
   0.10141761  0.06367417  3.93645181
   0.01921486  0.13866444 11.65137244
  15.33919733  7.58741930  3.87145320
  15.35529994  7.66887442 11.47448943
   7.79483061  0.14215115  3.86877325
   7.59317749  0.06023644 11.61589214
   7.60247799  7.64403289  3.97612824
   7.70139622  7.76046791 11.70929384
  15.35966697  3.97761966  0.03378535
  15.40708009  3.82013638  7.62379998
  15.40648807 11.70411110  0.07443278
  15.40997101 11.72656028  7.78228479
   7.64310064  3.97987488  0.03786335
   7.85267057  3.77645343  7.68260492
   7.83184339 11.65913364 15.42593542
   7.82312921 11.58506484  7.85039830
  15.40182477  3.95448563  3.99836323
   0.09782278  3.72001176 11.54199944
   0.10001429 11.55120925  3.74349089
  15.32735665 11.61714098 11.44568815
   7.83908948  3.72270016  3.89583413
   7.80970699  3.73076828 11.59454793
   7.80896473 11.58841673  3.89568458
   7.73248135 11.42730834 11.48017945
   3.96106897 15.38813521  0.08923269
   3.85591539 15.32536951  7.81194763
   3.76922194  7.83823002 15.38772066
   3.91845016  7.60753883  7.82367897
  11.67348516  0.00917746 15.32973060
  11.58713707  0.12736392  7.63251622
  11.44470175  7.70857134  0.08453986
  11.62734665  7.66380207  7.76122947
   3.77559563  0.03744251  3.75685962
   3.98137919 15.37880609 11.48603680
   3.93313638  7.58331229  3.88542374
   3.82807376  7.80365975 11.42939643
  11.47536047  0.03369732  3.94194210
  11.54572196  0.11775762 11.65117548
  11.66101873  7.67250035  3.72017614
  11.64812938  7.65207936 11.48436250
   3.96544201  3.88259159  0.09998378
   3.88828184  3.95069844  7.79603712
   3.89884450 11.44825165 15.33567554
   3.87363581 11.64348117  7.60434034
  11.67450170  3.89096186  0.12341868
  11.49558954  3.73843183  7.67602652
  11.44661222 11.53173412 15.32488730
  11.44853473 11.58101043  7.60646502
   3.86186492  3.97222140  3.76354274
   3.76449634  3.86663558 11.47888227
   3.75806386 11.52872296  3.95319650
   3.84158774 11.43817984 11.67328857
  11.44541513  3.88731054  3.72380650
  11.48275274  3.71175531 11.58189705
  11.49906993 11.54791441  3.96409245
  11.68914103 11.57383964 11.66742877
   0.05843137  7.46993851  9.64099121
  15.40403631  0.21792230  5.79260566
   0.03370945  0.17208677 13.45192691
   7.66183767  7.50078234  5.80340149
   7.58366247  7.56504894 13.49426349
   0.03212906 11.64049429  1.92884189
   0.09212241 11.68154136  9.62790660
   7.80699345 11.47399980  9.63928713
  15.21454448  3.67358455  5.74498777
   3.98308110  0.01526425  1.93127736
   3.99792921  0.01634904  9.64806751
   3.61407281  7.60821551  9.66209899
  11.49431847  7.43511067  1.92382126
  11.56082320  7.37896162  9.63027084
  11.52701212  0.18717835  5.79926902
  11.46900393  0.16190622 13.46809488
   3.73621019  3.87088443  1.93885023
   3.85780292  3.87581781  9.65399298
  11.35822266  4.14400011  1.94076173
   3.97488372 11.48275766  5.78371236
   3.93955709 11.57779004 13.50225818
  11.65271222 11.37710988  5.77251465
  11.60539384 11.39746421 13.49676543
   1.92562655  7.85822684 15.25596071
   9.65909804  7.88882167 15.33213289
   1.93288420  0.10974411  3.82844568
   9.63205576  0.10490760  3.79942959
   9.64218656  3.83126986  7.56148143
   9.63552364 11.35260064 15.42297419
   9.63492982 11.61348104  7.58571235
   1.92117943  3.75094156 11.61573700
   1.92922235 11.52494275  3.93658472
   9.65049998  3.70743187  4.08308838
   9.64977247  3.79061116 11.62229642
   9.60321117 11.55459449  3.92699785
   5.80574205 15.32042727 15.26631035
   5.78805438  7.68718166  7.85249170
  13.46142042 15.36182685 15.37481637
  13.50131017  7.53256275  7.82322340
   5.80317064 15.25645096 11.74000562
   5.77250604  7.58461694  3.79199350
  13.49133496  7.60247151  3.81203693
  13.50245028  7.57002247 11.40129666
   5.80318021  3.91228010  0.12850127
  13.48038991  3.93788971  0.15257167
  13.49458756 11.59114103 11.48875606
   7.74351736  1.88442144  7.50970080
  15.25400538  1.94753989 11.32603035
   7.56630872  1.92881140  4.15220915
   7.63926994  1.89822229 11.67625445
   7.62576871  9.63221985 11.67219921
   0.07994366  5.79893738 15.32558234
   0.11581237 13.49727964 15.30179601
   0.10328649 13.51608012  7.54223768
   7.84903316  5.76897014  0.20565518
   7.86658539 13.49178564  0.17092207
   0.16069263  5.79272672  3.96091931
   4.03547083  9.63968978  0.06455253
  11.60520790  1.94032122  7.93169638
   3.94019644  9.62908098 11.53431343
  11.69175883  1.92665716 11.32536778
   3.78215802  5.76073784  7.59757357
   3.78225138 13.50059413  7.68862382
   3.67981901  5.77704472  3.98147385
  15.38189749 15.31854328  1.94496781
   0.02939193 15.21634365  9.63649758
   0.09643559  7.72110466  1.91545944
   7.54590318  0.22598069  1.95218302
   7.57214421  0.07591086  9.60768324
   7.80309235  7.90693774  1.97507103
   7.88445864  7.82100428  9.63681161
  15.36143354  7.88703886  5.80361051
  15.24454902  7.86739622 13.45236641
   7.85801216 15.13925813  5.80690842
   8.00358335 15.28353603 13.50214855
   0.19333696  3.94854275  1.94822603
   0.03889124  4.18909360  9.63091874
   7.90760768  3.57190534  1.96226908
   7.75347343  3.66890699  9.61325062
   7.70083010 11.37799152  1.96578629
  15.26932623  3.69611150 13.49252736
  15.27921034 11.43301431  5.79384177
  15.38594014 11.44435633 13.46921449
   7.54490711  4.15911607  5.79440591
   7.64464158  4.02466076 13.50004667
   7.54500936 11.76403792  5.79592849
   7.64132488 11.71063660 13.48968841
   3.69287252  7.60045165  1.92465643
  11.59348849 15.25756845  1.95023976
  11.57398540 15.20808132  9.60971824
   3.82150578  0.04210764  5.79216925
   3.70510812 15.35533859 13.48906491
   3.88973472  7.90639868  5.79775547
   4.07285031  7.70895425 13.47500143
  11.60931354  7.96208044  5.79521899
  11.69237366  7.94009422 13.46278696
   3.83257106 11.65575137  1.93044578
   3.77504621 11.60820638  9.64797052
  11.47400916  4.17944623  9.62275534
  11.54441412 11.72507643  1.93973944
  11.46125648 11.69121824  9.62914046
   4.00455149  3.74261198  5.77162093
   3.95286910  3.85455945 13.50529020
  11.81170797  3.61450862  5.76376628
  11.69709955  3.60726615 13.51497359
   1.94614021  0.11202839  0.07400594
   1.93883566  0.21224569  7.76110135
   1.90114403  7.89580880  7.57535404
   9.63916326  0.12333132  0.16771417
   9.62603738 15.31638985  7.82753091
   9.66100014  7.74963503  7.66504688
   1.96299600  0.13839385 11.47408154
   1.91545584  7.89856826  3.93058202
   1.89682263  7.73893085 11.82004558
   9.62002159  0.03231340 11.36588088
   9.64792579  7.78043918  3.93534935
   9.66895544  7.70827417 11.68196004
   1.92744912  3.77324586 15.27638091
   1.99050881  3.60648289  7.63481303
   1.93109978 11.38381102 15.37967990
   1.91200363 11.42184694  7.58485180
   9.66253471  3.75102256 15.26542458
   1.93050492  3.60287396  4.01651103
   1.90242250 11.48149357 11.65748912
   9.66088188 11.49763943 11.64502239
   5.82204357 15.37125039  7.53486313
   5.76556962  7.55813936  0.17313587
  13.48804455 15.32074393  7.77898776
  13.48689541  7.59889964  0.04342041
   5.81963525 15.29286223  4.01649377
   5.78049072  7.57332882 11.34476302
  13.46933456 15.36451895  3.85612848
  13.48465603 15.23280433 11.52181991
   5.86026314  3.87482331  7.75467624
   5.80969063 11.76580501  0.08573521
   5.81409842 11.56493545  7.81614689
  13.40282538  4.12042329  7.90759988
  13.45012565 11.73979515  0.02709189
  13.46046173 11.61762218  7.82647829
   5.83736322  4.02967958  3.72500661
   5.81157021  3.93966889 11.54585464
   5.81209979 11.61330080  3.77168427
   5.78774581 11.74459421 11.48507621
  13.45986175  4.03104859  3.65594006
  13.47683546  4.07464612 11.43828544
  13.46764998 11.61970236  3.79233824
  15.38807282  1.95601581  0.13871924
  15.22791449  1.85455979  8.02927104
  15.24238663  9.64922753  0.02773958
  15.29990214  9.65282948  7.83124287
   7.69260384  1.91537512 15.27285679
   7.48478159  9.66824990 15.33397338
   7.72233620  9.65330066  7.53612506
  15.24496537  1.96117669  3.61964223
  15.31968174  9.62496612  3.80124788
   0.01273835  9.61249883 11.43904622
   7.64447087  9.65255893  4.06886571
   0.21845548  5.85046019  7.47266186
   7.75791928  5.73694254  7.94578148
   7.65225194 13.53471974  7.83266764
   0.07688420  5.77460015 11.80532469
  15.41970615 13.51645293  4.01319450
   0.11162673 13.51633413 11.69819426
   7.86625175  5.73104463  3.62983692
   7.76036175  5.75410247 11.38606857
   7.73317445 13.51276001  3.67136942
   7.84921833 13.49174364 11.49386137
   3.90301440  1.91925627 15.34550903
   4.03388598  1.90317400  7.69545377
   3.89631059  9.65764572  7.83627516
  11.58873854  1.94402757  0.25628694
  11.80484872  9.63755889  0.23804165
  11.60562571  9.62479956  7.93471502
   4.08082381  1.94703188  3.87576992
   4.00478657  1.91297173 11.66792308
   3.94623085  9.61646612  3.69132098
  11.74673456  1.95380243  3.60900734
  11.59337065  9.63532497  3.60759407
  11.55162320  9.60464607 11.33068116
   3.74873847  5.80247568 15.36102295
   3.68238827 13.47218410  0.02588378
  11.45465353  5.78373827 15.08435465
  11.45835590  5.77139879  7.37238740
  11.37329619 13.48862585 15.30412533
  11.59536106 13.51390360  7.54966693
   3.80030147  5.79670159 11.70375704
   3.84814753 13.50350395  3.90676937
   3.68127704 13.46942588 11.53327608
  11.44987172  5.77636772  4.21523931
  11.51070562  5.76300683 11.86507947
  11.53394165 13.50307878  4.01692070
  11.47107985 13.49579444 11.67306162
 


--------------------------------------------------------------------------------------------------------


 k-point  1 :   0.2500 0.2500 0.2500  plane waves:   93161
 k-point  2 :  -0.2500 0.2500 0.2500  plane waves:   93161
 k-point  3 :   0.2500-0.2500 0.2500  plane waves:   93161
 k-point  4 :  -0.2500-0.2500 0.2500  plane waves:   93161

 maximum and minimum number of plane-waves per node :     11686    11606

 maximum number of plane-waves:     93161
 maximum index in each direction: 
   IXMAX=   28   IYMAX=   28   IZMAX=   27
   IXMIN=  -28   IYMIN=  -28   IZMIN=  -28


 real space projection operators:
  total allocation   :     105582.59 KBytes
  max/ min on nodes  :      13235.64      13162.16


 parallel 3D FFT for wavefunctions:
    minimum data exchange during FFTs selected (reduces bandwidth)
 parallel 3D FFT for charge:
    minimum data exchange during FFTs selected (reduces bandwidth)


 total amount of memory used by VASP MPI-rank0   291525. kBytes
=======================================================================

   base      :      30000. kBytes
   nonlr-proj:      49490. kBytes
   fftplans  :      27976. kBytes
   grid      :      34041. kBytes
   one-center:       1026. kBytes
   wavefun   :     148992. kBytes
 
     INWAV:  cpu time   58.6568: real time   59.7834
 Broyden mixing: mesh for mixing (old mesh)
   NGX = 57   NGY = 57   NGZ = 57
  (NGX  =240   NGY  =240   NGZ  =240)
  gives a total of 185193 points

 charge density for first step will be calculated from the start-wavefunctions


--------------------------------------------------------------------------------------------------------


 Maximum index for non-local projection operator          968
 Maximum index for augmentation-charges         3290 (set IRDMAX)


--------------------------------------------------------------------------------------------------------


 initial charge from wavefunction
 First call to EWALD:  gamma=   0.115
 Maximum number of real-space cells 3x 3x 3
 Maximum number of reciprocal cells 3x 3x 3

    FEWALD:  cpu time    0.0370: real time    0.0371


--------------------------------------- Iteration      1(   1)  ---------------------------------------


    POTLOK:  cpu time    0.2978: real time    0.3289
    SETDIJ:  cpu time    1.3803: real time    1.3804
     EDDAV:  cpu time  161.1551: real time  162.1364
       DOS:  cpu time    0.0020: real time    0.0020
    CHARGE:  cpu time    5.2009: real time    5.2478
    MIXING:  cpu time    0.0176: real time    0.0179
    --------------------------------------------
      LOOP:  cpu time  168.0539: real time  169.1135

 eigenvalue-minimisations  : 29916
 total energy-change (2. order) :-0.1758020E+04  (-0.5898072E-05)
 number of electron    1923.0000026 magnetization       1.0000000
 augmentation part      496.7475013 magnetization       0.5794980

 Broyden mixing:
  rms(total) = 0.17495E-02    rms(broyden)= 0.17422E-02
  rms(prec ) = 0.20748E-02
  weight for this iteration     100.00

 Free energy of the ion-electron system (eV)
  ---------------------------------------------------
  alpha Z        PSCENC =      6118.73324990
  Ewald energy   TEWEN  =   -103760.58351948
  -Hartree energ DENC   =    -64871.65107603
  -exchange      EXHF   =         0.00000000
  -V(xc)+E(xc)   XCENC  =      8966.52025121
  PAW double counting   =    196602.65179326  -197606.87134317
  entropy T*S    EENTRO =        -0.00000000
  eigenvalues    EBANDS =    -25784.07183418
  atomic energy  EATOM  =    178577.25249613
  Solvation  Ediel_sol  =         0.00000000
  ---------------------------------------------------
  free energy    TOTEN  =     -1758.01998235 eV

  energy without entropy =    -1758.01998235  energy(sigma->0) =    -1758.01998235


--------------------------------------------------------------------------------------------------------




--------------------------------------- Iteration      1(   2)  ---------------------------------------


    POTLOK:  cpu time    0.2850: real time    0.2984
    SETDIJ:  cpu time    1.4151: real time    1.4448
     EDDAV:  cpu time  150.7213: real time  151.8343
       DOS:  cpu time    0.0021: real time    0.0021
    CHARGE:  cpu time    5.2348: real time    5.2601
    MIXING:  cpu time    0.0632: real time    0.0828
    --------------------------------------------
      LOOP:  cpu time  157.7214: real time  158.9226

 eigenvalue-minimisations  : 27480
 total energy-change (2. order) : 0.5283044E-05  (-0.4821340E-05)
 number of electron    1923.0000026 magnetization       1.0000000
 augmentation part      496.7491227 magnetization       0.5795001

 Broyden mixing:
  rms(total) = 0.11635E-02    rms(broyden)= 0.11527E-02
  rms(prec ) = 0.13370E-02
  weight for this iteration     100.00

 eigenvalues of (default mixing * dielectric matrix)
  average eigenvalue GAMMA=   0.6716
  0.6716

 Free energy of the ion-electron system (eV)
  ---------------------------------------------------
  alpha Z        PSCENC =      6118.73324990
  Ewald energy   TEWEN  =   -103760.58351948
  -Hartree energ DENC   =    -64871.63370200
  -exchange      EXHF   =         0.00000000
  -V(xc)+E(xc)   XCENC  =      8966.52195494
  PAW double counting   =    196602.89695309  -197607.12241414
  entropy T*S    EENTRO =        -0.00000000
  eigenvalues    EBANDS =    -25784.08499551
  atomic energy  EATOM  =    178577.25249613
  Solvation  Ediel_sol  =         0.00000000
  ---------------------------------------------------
  free energy    TOTEN  =     -1758.01997707 eV

  energy without entropy =    -1758.01997707  energy(sigma->0) =    -1758.01997707


--------------------------------------------------------------------------------------------------------




--------------------------------------- Iteration      1(   3)  ---------------------------------------


    POTLOK:  cpu time    0.2908: real time    0.3038
    SETDIJ:  cpu time    1.4375: real time    1.4456
     EDDAV:  cpu time  136.5978: real time  137.5408
       DOS:  cpu time    0.0019: real time    0.0019
    CHARGE:  cpu time    5.2974: real time    5.2977
    MIXING:  cpu time    0.0163: real time    0.0163
    --------------------------------------------
      LOOP:  cpu time  143.6419: real time  144.6061

 eigenvalue-minimisations  : 24324
 total energy-change (2. order) : 0.1678884E-05  (-0.1554683E-05)
 number of electron    1923.0000026 magnetization       1.0000000
 augmentation part      496.7485239 magnetization       0.5794950

 Broyden mixing:
  rms(total) = 0.51000E-03    rms(broyden)= 0.48592E-03
  rms(prec ) = 0.59997E-03
  weight for this iteration     100.00

 eigenvalues of (default mixing * dielectric matrix)
  average eigenvalue GAMMA=   0.7541
  0.7541  0.7541

 Free energy of the ion-electron system (eV)
  ---------------------------------------------------
  alpha Z        PSCENC =      6118.73324990
  Ewald energy   TEWEN  =   -103760.58351948
  -Hartree energ DENC   =    -64871.63337064
  -exchange      EXHF   =         0.00000000
  -V(xc)+E(xc)   XCENC  =      8966.52072562
  PAW double counting   =    196602.80504802  -197607.02754606
  entropy T*S    EENTRO =        -0.00000000
  eigenvalues    EBANDS =    -25784.08705888
  atomic energy  EATOM  =    178577.25249613
  Solvation  Ediel_sol  =         0.00000000
  ---------------------------------------------------
  free energy    TOTEN  =     -1758.01997539 eV

  energy without entropy =    -1758.01997539  energy(sigma->0) =    -1758.01997539


--------------------------------------------------------------------------------------------------------




--------------------------------------- Iteration      1(   4)  ---------------------------------------


    POTLOK:  cpu time    0.2842: real time    0.2866
    SETDIJ:  cpu time    1.4046: real time    1.4046
     EDDAV:  cpu time  109.0339: real time  109.6324
       DOS:  cpu time    0.0019: real time    0.0019
    --------------------------------------------
      LOOP:  cpu time  110.7245: real time  111.3254

 eigenvalue-minimisations  : 17868
 total energy-change (2. order) : 0.2735760E-06  (-0.4362702E-06)
 number of electron    1923.0000026 magnetization       1.0000000
 augmentation part      496.7485239 magnetization       0.5794950

 Free energy of the ion-electron system (eV)
  ---------------------------------------------------
  alpha Z        PSCENC =      6118.73324990
  Ewald energy   TEWEN  =   -103760.58351948
  -Hartree energ DENC   =    -64871.63312481
  -exchange      EXHF   =         0.00000000
  -V(xc)+E(xc)   XCENC  =      8966.52088700
  PAW double counting   =    196602.87914263  -197607.10173837
  entropy T*S    EENTRO =        -0.00000000
  eigenvalues    EBANDS =    -25784.08736812
  atomic energy  EATOM  =    178577.25249613
  Solvation  Ediel_sol  =         0.00000000
  ---------------------------------------------------
  free energy    TOTEN  =     -1758.01997512 eV

  energy without entropy =    -1758.01997512  energy(sigma->0) =    -1758.01997512


--------------------------------------------------------------------------------------------------------




 average (electrostatic) potential at core
  the test charge radii are     0.7079  1.0397  0.7215  0.7167
  (the norm of the test charge is              1.0000)
       1 -62.9141       2 -58.4699       3 -58.8235       4 -58.8026       5 -59.2290
       6 -58.8476       7 -59.7351       8 -58.5509       9 -58.7334      10 -58.8639
      11 -58.6435      12 -58.7849      13 -59.2579      14 -59.0985      15 -58.9319
      16 -58.8127      17 -58.7546      18 -58.8544      19 -56.9169      20 -58.6040
      21 -58.8066      22 -58.6698      23 -59.3608      24 -58.8676      25 -58.9087
      26 -58.6288      27 -58.6978      28 -58.6803      29 -58.8564      30 -59.1109
      31 -58.9923      32 -59.4774      33 -58.8514      34 -58.8155      35 -58.8441
      36 -58.7441      37 -58.4432      38 -58.7263      39 -59.1344      40 -58.7584
      41 -59.3170      42 -58.8143      43 -58.8832      44 -58.7707      45 -58.6689
      46 -59.1662      47 -58.8655      48 -58.8324      49 -59.3112      50 -58.7501
      51 -58.6542      52 -58.7167      53 -58.8120      54 -58.9146      55 -59.1956
      56 -58.9096      57 -59.0682      58 -58.7634      59 -58.7522      60 -58.7504
      61 -58.7574      62 -59.0251      63 -58.9149      64 -59.1861      65 -58.9268
      66 -74.3891      67 -73.9514      68 -73.7851      69 -73.8942      70 -73.8656
      71 -73.8406      72 -73.9705      73 -74.2569      74 -73.8182      75 -73.9348
      76 -74.0016      77 -73.9473      78 -74.0404      79 -74.2328      80 -74.2307
      81 -74.0081      82 -73.8992      83 -73.8601      84 -74.2925      85 -73.9225
      86 -73.9007      87 -74.2147      88 -74.0835      89 -73.8863      90 -73.8437
      91 -73.9964      92 -74.2192      93 -74.5036      94 -74.1476      95 -74.2893
      96 -73.9645      97 -73.9441      98 -74.3276      99 -74.0905     100 -74.3530
     101 -73.9313     102 -73.9242     103 -73.8372     104 -74.2148     105 -74.2062
     106 -73.9415     107 -73.9746     108 -74.4204     109 -73.8853     110 -74.0019
     111 -74.1921     112 -74.7976     113 -74.0613     114 -74.3983     115 -74.0971
     116 -74.0190     117 -73.9020     118 -73.7473     119 -74.1093     120 -73.8268
     121 -73.9603     122 -74.0418     123 -74.0161     124 -74.4702     125 -74.0471
     126 -74.2124     127 -73.7871     128 -73.9477     129 -74.0606     130 -78.2819
     131 -78.2350     132 -79.1560     133 -79.5275     134 -79.7652     135 -78.3045
     136 -78.2902     137 -79.0909     138 -79.1093     139 -79.8006     140 -79.4539
     141 -78.8131     142 -79.0063     143 -79.4522     144 -79.5806     145 -79.3518
     146 -79.0820     147 -78.3529     148 -78.3290     149 -79.6421     150 -79.3711
     151 -79.2039     152 -79.0625     153 -78.9954     154 -78.5052     155 -78.5065
     156 -78.3883     157 -78.3734     158 -78.8059     159 -78.7884     160 -78.6206
     161 -78.6287     162 -78.3736     163 -78.3191     164 -79.2398     165 -78.5017
     166 -78.5535     167 -78.3198     168 -78.3111     169 -79.1000     170 -79.0256
     171 -78.2837     172 -79.4710     173 -78.6676     174 -78.2741     175 -79.8461
     176 -78.6367     177 -78.9000     178 -78.3841     179 -79.1682     180 -78.9841
     181 -78.3998     182 -79.1543     183 -78.3194     184 -78.8424     185 -78.9803
     186 -79.1574     187 -78.3575     188 -79.0308     189 -78.9974     190 -79.0351
     191 -79.7617     192 -78.2799     193 -79.5562     194 -78.2381     195 -78.5425
     196 -79.1776     197 -78.4984     198 -79.0863     199 -79.0109     200 -78.8957
     201 -79.0543     202 -78.9429     203 -78.8426     204 -79.0385     205 -78.9295
     206 -78.4651     207 -78.5290     208 -79.1910     209 -78.9866     210 -78.5392
     211 -78.6276     212 -78.2345     213 -78.6284     214 -78.2473     215 -79.0545
     216 -78.2804     217 -78.3097     218 -79.2854     219 -78.8939     220 -78.8178
     221 -79.3286     222 -79.2983     223 -78.9830     224 -79.2229     225 -79.2474
     226 -79.1138     227 -79.0195     228 -78.9654     229 -79.0526     230 -78.4969
     231 -79.2176     232 -78.4802     233 -79.0099     234 -78.2822     235 -78.3246
     236 -79.2762     237 -79.3073     238 -79.4100     239 -78.9002     240 -79.0754
     241 -78.8633     242 -79.5008     243 -79.4755     244 -79.3638     245 -78.8136
     246 -78.8420     247 -79.3088     248 -79.1838     249 -79.2729     250 -79.1651
     251 -78.8918     252 -79.0566     253 -78.9134     254 -79.4787     255 -79.1356
     256 -79.4957     257 -79.0507
 
 
 
 E-fermi :  -0.7157     XC(G=0):  -9.0589     alpha+bet : -7.7421


 spin component 1

 k-point     1 :       0.2500    0.2500    0.2500
  band No.  band energies     occupation 
      1     -43.6011      1.00000
      2     -35.7499      1.00000
      3     -35.7381      1.00000
      4     -35.5593      1.00000
      5     -35.4415      1.00000
      6     -35.4308      1.00000
      7     -35.3872      1.00000
      8     -35.2949      1.00000
      9     -35.2903      1.00000
     10     -35.2511      1.00000
     11     -35.2493      1.00000
     12     -35.2409      1.00000
     13     -35.2180      1.00000
     14     -35.2142      1.00000
     15     -35.2049      1.00000
     16     -35.1960      1.00000
     17     -35.1730      1.00000
     18     -35.1711      1.00000
     19     -35.1583      1.00000
     20     -35.1580      1.00000
     21     -35.1539      1.00000
     22     -35.1427      1.00000
     23     -35.1390      1.00000
     24     -35.1265      1.00000
     25     -35.1197      1.00000
     26     -35.0964      1.00000
     27     -35.0944      1.00000
     28     -35.0891      1.00000
     29     -35.0769      1.00000
     30     -35.0633      1.00000
     31     -35.0589      1.00000
     32     -35.0469      1.00000
     33     -35.0301      1.00000
     34     -35.0286      1.00000
     35     -35.0165      1.00000
     36     -35.0093      1.00000
     37     -35.0024      1.00000
     38     -34.9957      1.00000
     39     -34.9861      1.00000
     40     -34.9852      1.00000
     41     -34.9848      1.00000
     42     -34.9592      1.00000
     43     -34.9516      1.00000
     44     -34.9462      1.00000
     45     -34.9433      1.00000
     46     -34.9393      1.00000
     47     -34.9338      1.00000
     48     -34.9335      1.00000
     49     -34.9254      1.00000
     50     -34.9225      1.00000
     51     -34.9126      1.00000
     52     -34.9109      1.00000
     53     -34.8902      1.00000
     54     -34.8822      1.00000
     55     -34.8809      1.00000
[...]
   81        1.573   3.456   0.000   5.029
   82        1.575   3.459   0.000   5.034
   83        1.574   3.459   0.000   5.033
   84        1.576   3.463   0.000   5.039
   85        1.575   3.461   0.000   5.036
   86        1.575   3.464   0.000   5.039
   87        1.576   3.458   0.000   5.034
   88        1.574   3.461   0.000   5.036
   89        1.574   3.457   0.000   5.032
   90        1.575   3.453   0.000   5.028
   91        1.574   3.459   0.000   5.033
   92        1.575   3.458   0.000   5.033
   93        1.577   3.469   0.000   5.046
   94        1.577   3.468   0.000   5.044
   95        1.576   3.473   0.000   5.050
   96        1.574   3.462   0.000   5.036
   97        1.575   3.464   0.000   5.039
   98        1.576   3.468   0.000   5.044
   99        1.575   3.463   0.000   5.038
  100        1.576   3.456   0.000   5.032
  101        1.574   3.455   0.000   5.029
  102        1.575   3.463   0.000   5.038
  103        1.575   3.455   0.000   5.030
  104        1.567   3.480   0.000   5.047
  105        1.577   3.467   0.000   5.044
  106        1.574   3.459   0.000   5.033
  107        1.574   3.461   0.000   5.035
  108        1.570   3.492   0.000   5.061
  109        1.574   3.459   0.000   5.034
  110        1.575   3.456   0.000   5.031
  111        1.576   3.472   0.000   5.048
  112        1.577   3.462   0.000   5.039
  113        1.577   3.467   0.000   5.044
  114        1.577   3.467   0.000   5.044
  115        1.574   3.462   0.000   5.036
  116        1.575   3.460   0.000   5.035
  117        1.575   3.458   0.000   5.032
  118        1.575   3.458   0.000   5.034
  119        1.576   3.469   0.000   5.046
  120        1.575   3.455   0.000   5.030
  121        1.574   3.457   0.000   5.032
  122        1.575   3.467   0.000   5.043
  123        1.577   3.470   0.000   5.047
  124        1.576   3.465   0.000   5.042
  125        1.576   3.473   0.000   5.049
  126        1.576   3.465   0.000   5.041
  127        1.574   3.457   0.000   5.031
  128        1.574   3.458   0.000   5.032
  129        1.576   3.467   0.000   5.043
  130        1.737   4.366   0.000   6.103
  131        1.736   4.366   0.000   6.103
  132        1.737   4.380   0.000   6.117
  133        1.738   4.382   0.000   6.120
  134        1.738   4.381   0.000   6.119
  135        1.736   4.364   0.000   6.101
  136        1.736   4.364   0.000   6.101
  137        1.738   4.380   0.000   6.119
  138        1.739   4.380   0.000   6.118
  139        1.739   4.381   0.000   6.121
  140        1.739   4.381   0.000   6.120
  141        1.738   4.374   0.000   6.112
  142        1.737   4.379   0.000   6.116
  143        1.738   4.381   0.000   6.118
  144        1.738   4.383   0.000   6.121
  145        1.738   4.379   0.000   6.117
  146        1.737   4.377   0.000   6.114
  147        1.736   4.366   0.000   6.102
  148        1.736   4.366   0.000   6.102
  149        1.739   4.379   0.000   6.118
  150        1.738   4.384   0.000   6.122
  151        1.738   4.372   0.000   6.110
  152        1.737   4.376   0.000   6.114
  153        1.737   4.378   0.000   6.115
  154        1.737   4.367   0.000   6.104
  155        1.737   4.367   0.000   6.104
  156        1.737   4.369   0.000   6.105
  157        1.737   4.366   0.000   6.103
  158        1.738   4.373   0.000   6.111
  159        1.738   4.373   0.000   6.111
  160        1.737   4.363   0.000   6.100
  161        1.737   4.364   0.000   6.101
  162        1.736   4.369   0.000   6.105
  163        1.736   4.366   0.000   6.103
  164        1.737   4.371   0.000   6.108
  165        1.736   4.365   0.000   6.101
  166        1.736   4.366   0.000   6.102
  167        1.737   4.368   0.000   6.105
  168        1.737   4.369   0.000   6.106
  169        1.738   4.367   0.000   6.105
  170        1.737   4.372   0.000   6.109
  171        1.737   4.367   0.000   6.104
  172        1.738   4.385   0.000   6.123
  173        1.738   4.370   0.000   6.108
  174        1.737   4.366   0.000   6.103
  175        1.738   4.383   0.000   6.122
  176        1.737   4.367   0.000   6.105
  177        1.737   4.377   0.000   6.114
  178        1.737   4.367   0.000   6.103
  179        1.738   4.377   0.000   6.115
  180        1.738   4.376   0.000   6.114
  181        1.736   4.367   0.000   6.103
  182        1.737   4.378   0.000   6.116
  183        1.737   4.365   0.000   6.102
  184        1.737   4.380   0.000   6.117
  185        1.737   4.378   0.000   6.115
  186        1.738   4.379   0.000   6.117
  187        1.737   4.367   0.000   6.103
  188        1.737   4.375   0.000   6.112
  189        1.738   4.380   0.000   6.118
  190        1.738   4.379   0.000   6.117
  191        1.739   4.386   0.000   6.125
  192        1.737   4.366   0.000   6.102
  193        1.739   4.388   0.000   6.127
  194        1.736   4.365   0.000   6.102
  195        1.737   4.367   0.000   6.104
  196        1.738   4.380   0.000   6.118
  197        1.737   4.367   0.000   6.104
  198        1.737   4.377   0.000   6.114
  199        1.738   4.379   0.000   6.117
  200        1.738   4.377   0.000   6.115
  201        1.738   4.380   0.000   6.117
  202        1.737   4.378   0.000   6.115
  203        1.737   4.377   0.000   6.115
  204        1.738   4.377   0.000   6.115
  205        1.737   4.373   0.000   6.109
  206        1.737   4.368   0.000   6.105
  207        1.737   4.368   0.000   6.105
  208        1.737   4.378   0.000   6.116
  209        1.737   4.375   0.000   6.112
  210        1.736   4.365   0.000   6.101
  211        1.737   4.370   0.000   6.107
  212        1.737   4.366   0.000   6.102
  213        1.737   4.377   0.000   6.114
  214        1.736   4.366   0.000   6.102
  215        1.738   4.373   0.000   6.112
  216        1.736   4.364   0.000   6.100
  217        1.736   4.362   0.000   6.099
  218        1.737   4.380   0.000   6.117
  219        1.738   4.374   0.000   6.113
  220        1.738   4.377   0.000   6.115
  221        1.737   4.379   0.000   6.116
  222        1.737   4.376   0.000   6.113
  223        1.738   4.376   0.000   6.114
  224        1.738   4.379   0.000   6.117
  225        1.738   4.380   0.000   6.118
  226        1.739   4.373   0.000   6.112
  227        1.737   4.376   0.000   6.113
  228        1.738   4.375   0.000   6.113
  229        1.738   4.374   0.000   6.111
  230        1.736   4.367   0.000   6.103
  231        1.738   4.372   0.000   6.110
  232        1.736   4.367   0.000   6.103
  233        1.738   4.380   0.000   6.117
  234        1.737   4.369   0.000   6.105
  235        1.737   4.369   0.000   6.106
  236        1.738   4.382   0.000   6.120
  237        1.738   4.379   0.000   6.117
  238        1.737   4.376   0.000   6.113
  239        1.738   4.375   0.000   6.114
  240        1.737   4.379   0.000   6.116
  241        1.738   4.375   0.000   6.113
  242        1.738   4.380   0.000   6.118
  243        1.738   4.382   0.000   6.120
  244        1.737   4.376   0.000   6.113
  245        1.738   4.377   0.000   6.114
  246        1.738   4.376   0.000   6.114
  247        1.738   4.378   0.000   6.116
  248        1.739   4.373   0.000   6.111
  249        1.737   4.381   0.000   6.119
  250        1.738   4.377   0.000   6.115
  251        1.738   4.379   0.000   6.116
  252        1.737   4.380   0.000   6.117
  253        1.738   4.377   0.000   6.115
  254        1.739   4.379   0.000   6.118
  255        1.739   4.371   0.000   6.110
  256        1.738   4.382   0.000   6.120
  257        1.738   4.375   0.000   6.113
--------------------------------------------------
tot        345.3061194.421 111.7621651.489
 


 magnetization (x)
 
# of ion       s       p       d       tot
------------------------------------------
    1       -0.000  -0.000   0.000  -0.000
    2       -0.000  -0.000   0.000  -0.000
    3       -0.000  -0.000   0.006   0.006
    4       -0.000   0.000  -0.000  -0.000
    5       -0.000   0.000   0.007   0.007
    6        0.000  -0.000  -0.000  -0.000
    7        0.000   0.000   0.000   0.000
    8        0.000  -0.000  -0.000  -0.000
    9        0.000   0.000   0.000   0.000
   10       -0.000  -0.000  -0.000  -0.000
   11       -0.000  -0.000   0.000   0.000
   12        0.000  -0.000  -0.000  -0.000
   13       -0.000  -0.000  -0.000  -0.000
   14        0.000  -0.000  -0.000  -0.000
   15        0.000  -0.000   0.000   0.000
   16       -0.000  -0.000  -0.000  -0.000
   17       -0.000  -0.000   0.000   0.000
   18       -0.000  -0.000  -0.000  -0.000
   19        0.005   0.006   0.927   0.938
   20       -0.000  -0.000  -0.000  -0.000
   21       -0.000  -0.000   0.000   0.000
   22       -0.000  -0.000  -0.000  -0.000
   23        0.000   0.000   0.000   0.000
   24       -0.000  -0.000  -0.000  -0.000
   25        0.000   0.000   0.000   0.000
   26       -0.000  -0.000  -0.004  -0.005
   27       -0.000  -0.000   0.000  -0.000
   28        0.000   0.000   0.000   0.000
   29       -0.000  -0.000  -0.000  -0.000
   30       -0.000  -0.000  -0.000  -0.000
   31        0.000  -0.000  -0.000  -0.000
   32       -0.000   0.000   0.000   0.000
   33       -0.000  -0.000  -0.000  -0.000
   34       -0.000  -0.000  -0.000  -0.000
   35        0.000   0.000   0.000   0.000
   36        0.000   0.000   0.000   0.000
   37        0.000   0.000   0.001   0.001
   38       -0.000  -0.000   0.000  -0.000
   39        0.000   0.000   0.002   0.002
   40       -0.000  -0.000  -0.000  -0.000
   41        0.000   0.000   0.002   0.002
   42        0.000  -0.000  -0.000  -0.000
   43       -0.000  -0.000   0.000   0.000
   44       -0.000  -0.000   0.000   0.000
   45       -0.000  -0.000  -0.000  -0.000
   46       -0.000  -0.000  -0.000  -0.000
   47       -0.000  -0.000   0.000   0.000
   48        0.000  -0.000   0.000   0.000
   49       -0.000  -0.000  -0.000  -0.000
   50       -0.000  -0.000  -0.000  -0.000
   51       -0.000   0.000   0.004   0.004
   52       -0.000   0.000  -0.000  -0.000
   53        0.000   0.000   0.000   0.000
   54       -0.000  -0.000  -0.000  -0.000
   55        0.000   0.000   0.005   0.005
   56        0.000  -0.000   0.000   0.000
   57        0.000   0.000   0.000   0.000
   58        0.000   0.000   0.000   0.000
   59       -0.000  -0.000  -0.000  -0.000
   60       -0.000  -0.000  -0.000  -0.000
   61        0.000  -0.000   0.000   0.000
   62        0.000   0.000   0.000   0.000
   63        0.000  -0.000   0.000   0.000
   64       -0.000  -0.000  -0.000  -0.000
   65        0.000   0.000   0.000   0.000
   66       -0.000  -0.000   0.000  -0.000
   67       -0.000  -0.000   0.000  -0.000
   68       -0.000  -0.000   0.000  -0.000
   69       -0.000  -0.000   0.000  -0.000
   70       -0.000  -0.000   0.000  -0.000
   71       -0.000  -0.000   0.000  -0.000
   72       -0.000  -0.000   0.000  -0.000
   73       -0.000  -0.000   0.000  -0.000
   74       -0.001  -0.018   0.000  -0.019
   75       -0.000  -0.000   0.000  -0.000
   76       -0.000  -0.000   0.000  -0.000
   77       -0.000  -0.000   0.000  -0.000
   78       -0.000  -0.000   0.000  -0.000
   79       -0.000  -0.000   0.000  -0.000
   80       -0.000  -0.000   0.000  -0.000
   81       -0.000  -0.000   0.000  -0.000
   82       -0.000  -0.000   0.000  -0.000
   83       -0.000  -0.000   0.000  -0.000
   84       -0.000  -0.000   0.000  -0.000
   85       -0.000  -0.000   0.000  -0.000
   86       -0.000  -0.000   0.000  -0.000
   87       -0.000  -0.000   0.000  -0.000
   88       -0.000  -0.000   0.000  -0.000
   89       -0.000  -0.000   0.000  -0.000
   90        0.000  -0.000   0.000  -0.000
   91       -0.000  -0.000   0.000  -0.000
   92       -0.000  -0.000   0.000  -0.000
   93        0.000  -0.000   0.000  -0.000
   94       -0.000   0.000   0.000   0.000
   95       -0.000  -0.000   0.000  -0.000
   96       -0.000  -0.000   0.000  -0.000
   97       -0.000  -0.000   0.000  -0.000
   98       -0.000  -0.000   0.000  -0.000
   99       -0.000  -0.000   0.000  -0.000
  100        0.000   0.000   0.000   0.000
  101       -0.000  -0.000   0.000  -0.000
  102       -0.000  -0.000   0.000  -0.000
  103        0.000  -0.000   0.000  -0.000
  104       -0.000  -0.001   0.000  -0.001
  105       -0.000  -0.000   0.000  -0.000
  106       -0.000  -0.000   0.000  -0.000
  107        0.000   0.000   0.000   0.000
  108       -0.000  -0.000   0.000  -0.000
  109        0.000  -0.000   0.000  -0.000
  110        0.000   0.000   0.000   0.000
  111       -0.000  -0.000   0.000  -0.000
  112       -0.000  -0.000   0.000  -0.000
  113       -0.000  -0.000   0.000  -0.000
  114       -0.000  -0.000   0.000  -0.000
  115        0.000  -0.000   0.000  -0.000
  116       -0.000  -0.000   0.000  -0.000
  117        0.000   0.000   0.000   0.000
  118       -0.000  -0.000   0.000  -0.000
  119       -0.000  -0.000   0.000  -0.000
  120       -0.000   0.000   0.000   0.000
  121       -0.000   0.000   0.000   0.000
  122        0.000  -0.000   0.000  -0.000
  123        0.000   0.000   0.000   0.000
  124       -0.000  -0.001   0.000  -0.001
  125        0.000  -0.000   0.000  -0.000
  126       -0.000  -0.000   0.000  -0.000
  127       -0.000  -0.000   0.000  -0.000
  128       -0.000  -0.000   0.000  -0.000
  129       -0.000  -0.000   0.000  -0.000
  130       -0.000  -0.000   0.000  -0.000
  131       -0.000  -0.000   0.000  -0.000
  132       -0.000  -0.000   0.000  -0.000
  133       -0.000  -0.000   0.000  -0.000
  134       -0.000  -0.000   0.000  -0.000
  135       -0.000  -0.000   0.000  -0.000
  136       -0.000  -0.000   0.000  -0.000
  137       -0.000  -0.000   0.000  -0.000
  138       -0.000  -0.000   0.000  -0.000
  139       -0.000  -0.000   0.000  -0.000
  140       -0.000  -0.000   0.000  -0.000
  141       -0.000  -0.000   0.000  -0.000
  142       -0.000  -0.005   0.000  -0.005
  143       -0.000  -0.000   0.000  -0.000
  144       -0.000  -0.000   0.000  -0.000
  145        0.000   0.000   0.000   0.000
  146       -0.000  -0.000   0.000  -0.000
  147       -0.000  -0.000   0.000  -0.000
  148       -0.000  -0.000   0.000  -0.000
  149        0.000  -0.000   0.000  -0.000
  150       -0.000  -0.000   0.000  -0.000
  151       -0.000  -0.000   0.000  -0.000
  152       -0.000   0.000   0.000   0.000
  153       -0.000  -0.000   0.000  -0.000
  154       -0.000  -0.000   0.000  -0.000
  155       -0.000  -0.000   0.000  -0.000
  156       -0.000  -0.000   0.000  -0.000
  157        0.000  -0.000   0.000  -0.000
  158       -0.000  -0.000   0.000  -0.000
  159        0.000  -0.000   0.000  -0.000
  160       -0.000  -0.000   0.000  -0.000
  161       -0.000  -0.000   0.000  -0.000
  162       -0.000  -0.000   0.000  -0.000
  163       -0.000  -0.000   0.000  -0.000
  164       -0.000  -0.000   0.000  -0.000
  165       -0.000  -0.000   0.000  -0.000
  166       -0.000  -0.000   0.000  -0.000
  167       -0.000  -0.000   0.000  -0.000
  168       -0.000  -0.000   0.000  -0.000
  169       -0.000  -0.000   0.000  -0.000
  170        0.000  -0.000   0.000  -0.000
  171        0.000   0.000   0.000   0.000
  172        0.000   0.000   0.000   0.000
  173        0.000   0.000   0.000   0.000
  174       -0.000  -0.000   0.000  -0.000
  175       -0.000  -0.000   0.000  -0.000
  176        0.000   0.000   0.000   0.000
  177       -0.000  -0.000   0.000  -0.000
  178        0.000   0.000   0.000   0.000
  179        0.000  -0.000   0.000  -0.000
  180       -0.000  -0.000   0.000  -0.000
  181       -0.000  -0.000   0.000  -0.000
  182       -0.000  -0.000   0.000  -0.000
  183        0.000  -0.000   0.000  -0.000
  184       -0.000   0.002   0.000   0.002
  185       -0.000   0.000   0.000   0.000
  186       -0.000  -0.000   0.000  -0.000
  187       -0.000  -0.000   0.000  -0.000
  188       -0.000  -0.000   0.000  -0.000
  189       -0.000  -0.000   0.000  -0.000
  190       -0.000  -0.000   0.000  -0.000
  191        0.000   0.000   0.000   0.000
  192       -0.000   0.000   0.000   0.000
  193        0.000  -0.000   0.000  -0.000
  194       -0.000  -0.000   0.000  -0.000
  195       -0.000  -0.000   0.000  -0.000
  196        0.000  -0.000   0.000  -0.000
  197       -0.000  -0.000   0.000  -0.000
  198       -0.000  -0.000   0.000  -0.000
  199        0.000  -0.000   0.000  -0.000
  200       -0.000   0.000   0.000   0.000
  201       -0.000  -0.000   0.000  -0.000
  202       -0.000   0.002   0.000   0.001
  203       -0.000  -0.000   0.000  -0.000
  204       -0.000  -0.000   0.000  -0.000
  205       -0.000  -0.000   0.000  -0.000
  206       -0.000  -0.000   0.000  -0.000
  207       -0.000  -0.000   0.000  -0.000
  208       -0.000   0.000   0.000   0.000
  209       -0.000  -0.000   0.000  -0.000
  210        0.000  -0.000   0.000  -0.000
  211       -0.000  -0.000   0.000  -0.000
  212       -0.000  -0.000   0.000  -0.000
  213       -0.000   0.002   0.000   0.002
  214       -0.000  -0.000   0.000  -0.000
  215        0.000  -0.000   0.000  -0.000
  216       -0.000  -0.000   0.000  -0.000
  217       -0.000   0.000   0.000   0.000
  218        0.000   0.000   0.000   0.000
  219       -0.000  -0.000   0.000  -0.000
  220        0.000  -0.000   0.000  -0.000
  221       -0.000  -0.000   0.000  -0.000
  222       -0.000   0.000   0.000   0.000
  223       -0.000   0.001   0.000   0.001
  224       -0.000  -0.000   0.000  -0.000
  225       -0.000  -0.000   0.000  -0.000
  226       -0.000  -0.000   0.000  -0.000
  227       -0.000  -0.000   0.000  -0.000
  228       -0.000  -0.000   0.000  -0.000
  229       -0.000   0.000   0.000   0.000
  230       -0.000  -0.000   0.000  -0.000
  231       -0.000  -0.000   0.000  -0.000
  232       -0.000  -0.000   0.000  -0.000
  233       -0.000  -0.000   0.000  -0.000
  234        0.000   0.000   0.000   0.000
  235        0.000   0.000   0.000   0.000
  236       -0.000   0.000   0.000   0.000
  237       -0.000  -0.000   0.000  -0.000
  238        0.000   0.000   0.000   0.000
  239        0.000   0.000   0.000   0.000
  240       -0.000  -0.000   0.000  -0.000
  241       -0.000   0.000   0.000   0.000
  242        0.000   0.000   0.000   0.000
  243       -0.000   0.000   0.000  -0.000
  244       -0.000  -0.000   0.000  -0.000
  245        0.000  -0.000   0.000  -0.000
  246       -0.000   0.000   0.000   0.000
  247       -0.000   0.000   0.000  -0.000
  248        0.000  -0.000   0.000  -0.000
  249       -0.000  -0.000   0.000  -0.000
  250       -0.000  -0.000   0.000  -0.000
  251       -0.000  -0.000   0.000  -0.000
  252       -0.000   0.000   0.000   0.000
  253       -0.000  -0.000   0.000  -0.000
  254        0.000  -0.000   0.000  -0.000
  255       -0.000  -0.000   0.000  -0.000
  256       -0.000  -0.000   0.000  -0.000
  257       -0.000  -0.000   0.000  -0.000
--------------------------------------------------
tot          0.002  -0.014   0.951   0.939
 

 total amount of memory used by VASP MPI-rank0   291525. kBytes
=======================================================================

   base      :      30000. kBytes
   nonlr-proj:      49490. kBytes
   fftplans  :      27976. kBytes
   grid      :      34041. kBytes
   one-center:       1026. kBytes
   wavefun   :     148992. kBytes
 
  
  
 General timing and accounting informations for this job:
 ========================================================
  
                  Total CPU time used (sec):     1209.404
                            User time (sec):      871.866
                          System time (sec):      337.538
                         Elapsed time (sec):     1258.670
  
                   Maximum memory used (kb):      623376.
                   Average memory used (kb):           0.
  
                          Minor page faults:       107741
                          Major page faults:           11
                 Voluntary context switches:        18918
