 vasp.5.4.4.18Apr17-6-g9f103f2a35 (build Apr 30 2017 20:10:35) complex          
  
 executed on             LinuxIFC date 2017.08.04  09:02:20
 running on   64 total cores
 distrk:  each k-point on   64 cores,    1 groups
 distr:  one band on NCORES_PER_BAND=   8 cores,    8 groups


--------------------------------------------------------------------------------------------------------


 INCAR:
 POTCAR:   PAW_PBE Ti_pv 07Sep2000                
 POTCAR:   PAW_PBE O 08Apr2002                    
 POTCAR:    PAW_PBE F 08Apr2002                   
 POTCAR:   PAW_PBE Ti_pv 07Sep2000                
   VRHFIN =Ti: d3 s1                                                            
   LEXCH  = PE                                                                  
   EATOM  =  1042.3781 eV,   76.6126 Ry                                         
                                                                                
   TITEL  = PAW_PBE Ti_pv 07Sep2000                                             
   LULTRA =        F    use ultrasoft PP ?                                      
   IUNSCR =        1    unscreen: 0-lin 1-nonlin 2-no                           
   RPACOR =    2.200    partial core radius                                     
   POMASS =   47.880; ZVAL   =   10.000    mass and valenz                      
   RCORE  =    2.500    outmost cutoff radius                                   
   RWIGS  =    2.500; RWIGS  =    1.323    wigner-seitz radius (au A)           
   ENMAX  =  222.338; ENMIN  =  166.753 eV                                      
   RCLOC  =    1.701    cutoff for local pot                                    
   LCOR   =        T    correct aug charges                                     
   LPAW   =        T    paw PP                                                  
   EAUG   =  482.848                                                            
   DEXC   =    -.008                                                            
   RMAX   =    3.092    core radius for proj-oper                               
   RAUG   =    1.300    factor for augmentation sphere                          
   RDEP   =    2.538    radius for radial grids                                 
   QCUT   =   -4.042; QGAM   =    8.085    optimization parameters              
                                                                                
   Description                                                                  
     l     E      TYP  RCUT    TYP  RCUT                                        
     1   .000     23  2.300                                                     
     1  -.100     23  2.300                                                     
     2   .000     23  2.500                                                     
     2   .000     23  2.500                                                     
     0   .000     23  2.500                                                     
     0  1.500     23  2.500                                                     
     3   .000      7   .000                                                     
  local pseudopotential read in
  partial core-charges read in
  atomic valenz-charges read in
  non local Contribution for L=           1  read in
    real space projection operators read in
  non local Contribution for L=           1  read in
    real space projection operators read in
  non local Contribution for L=           2  read in
    real space projection operators read in
  non local Contribution for L=           2  read in
    real space projection operators read in
  non local Contribution for L=           0  read in
    real space projection operators read in
  non local Contribution for L=           0  read in
    real space projection operators read in
    PAW grid and wavefunctions read in
 
   number of l-projection  operators is LMAX  =           6
   number of lm-projection operators is LMMAX =          18
 
 POTCAR:   PAW_PBE O 08Apr2002                    
   VRHFIN =O: s2p4                                                              
   LEXCH  = PE                                                                  
   EATOM  =   432.3788 eV,   31.7789 Ry                                         
                                                                                
   TITEL  = PAW_PBE O 08Apr2002                                                 
   LULTRA =        F    use ultrasoft PP ?                                      
   IUNSCR =        0    unscreen: 0-lin 1-nonlin 2-no                           
   RPACOR =     .000    partial core radius                                     
   POMASS =   16.000; ZVAL   =    6.000    mass and valenz                      
   RCORE  =    1.520    outmost cutoff radius                                   
   RWIGS  =    1.550; RWIGS  =     .820    wigner-seitz radius (au A)           
   ENMAX  =  400.000; ENMIN  =  300.000 eV                                      
   ICORE  =        2    local potential                                         
   LCOR   =        T    correct aug charges                                     
   LPAW   =        T    paw PP                                                  
   EAUG   =  605.392                                                            
   DEXC   =     .000                                                            
   RMAX   =    2.264    core radius for proj-oper                               
   RAUG   =    1.300    factor for augmentation sphere                          
   RDEP   =    1.550    radius for radial grids                                 
   QCUT   =   -5.520; QGAM   =   11.041    optimization parameters              
                                                                                
   Description                                                                  
     l     E      TYP  RCUT    TYP  RCUT                                        
     0   .000     23  1.200                                                     
     0  -.700     23  1.200                                                     
     1   .000     23  1.520                                                     
     1   .600     23  1.520                                                     
     2   .000      7  1.500                                                     
  local pseudopotential read in
  atomic valenz-charges read in
  non local Contribution for L=           0  read in
    real space projection operators read in
  non local Contribution for L=           0  read in
    real space projection operators read in
  non local Contribution for L=           1  read in
    real space projection operators read in
  non local Contribution for L=           1  read in
    real space projection operators read in
    PAW grid and wavefunctions read in
 
   number of l-projection  operators is LMAX  =           4
   number of lm-projection operators is LMMAX =           8
 
 POTCAR:    PAW_PBE F 08Apr2002                   
   VRHFIN =F: s2p5                                                              
   LEXCH  = PE                                                                  
   EATOM  =   659.6475 eV,   48.4827 Ry                                         
                                                                                
   TITEL  = PAW_PBE F 08Apr2002                                                 
   LULTRA =        F    use ultrasoft PP ?                                      
   IUNSCR =        1    unscreen: 0-lin 1-nonlin 2-no                           
   RPACOR =    1.200    partial core radius                                     
   POMASS =   18.998; ZVAL   =    7.000    mass and valenz                      
   RCORE  =    1.520    outmost cutoff radius                                   
   RWIGS  =    1.500; RWIGS  =    0.794    wigner-seitz radius (au A)           
   ENMAX  =  400.000; ENMIN  =  300.000 eV                                      
   ICORE  =        2    local potential                                         
   LCOR   =        T    correct aug charges                                     
   LPAW   =        T    paw PP                                                  
   EAUG   =  613.614                                                            
   RMAX   =    1.555    core radius for proj-oper                               
   RAUG   =    1.300    factor for augmentation sphere                          
   RDEP   =    1.539    radius for radial grids                                 
   RDEPT  =    1.299    core radius for aug-charge                              
                                                                                
   Atomic configuration                                                         
    4 entries                                                                   
     n  l   j            E        occ.                                          
     1  0  0.50      -663.3661   2.0000                                         
     2  0  0.50       -29.8995   2.0000                                         
     2  1  0.50       -11.1114   5.0000                                         
     3  2  1.50       -10.8847   0.0000                                         
   Description                                                                  
     l       E           TYP  RCUT    TYP  RCUT                                 
     0    -29.8995018     23  1.200                                             
     0     -9.5240782     23  1.200                                             
     1    -11.1113914     23  1.520                                             
     1      1.3605826     23  1.520                                             
     2    -10.8846608      7  1.500                                             
  local pseudopotential read in
  partial core-charges read in
  partial kinetic energy density read in
  atomic valenz-charges read in
  non local Contribution for L=           0  read in
    real space projection operators read in
  non local Contribution for L=           0  read in
    real space projection operators read in
  non local Contribution for L=           1  read in
    real space projection operators read in
  non local Contribution for L=           1  read in
    real space projection operators read in
    PAW grid and wavefunctions read in
 
   number of l-projection  operators is LMAX  =           4
   number of lm-projection operators is LMMAX =           8
 
 Optimization of the real space projectors (new method)

 maximal supplied QI-value         = 15.12
 optimisation between [QCUT,QGAM] = [ 13.45, 27.06] = [ 50.69,205.06] Ry 
 Optimized for a Real-space Cutoff    1.49 Angstroem

   l    n(q)    QCUT    max X(q) W(low)/X(q) W(high)/X(q)  e(spline) 
   1     12    13.455     4.841    0.13E-05    0.83E-06    0.56E-07
   1     12    13.455     5.701    0.32E-04    0.25E-04    0.17E-06
   2     11    13.455     4.569    0.64E-05    0.34E-05    0.50E-07
   2     11    13.455    32.276    0.49E-04    0.38E-04    0.46E-06
   0     12    13.455    30.046    0.17E-04    0.41E-05    0.51E-07
   0     12    13.455    45.433    0.12E-04    0.27E-04    0.38E-06
 Optimization of the real space projectors (new method)

 maximal supplied QI-value         = 24.76
 optimisation between [QCUT,QGAM] = [ 13.37, 26.98] = [ 50.04,203.89] Ry 
 Optimized for a Real-space Cutoff    1.17 Angstroem

   l    n(q)    QCUT    max X(q) W(low)/X(q) W(high)/X(q)  e(spline) 
   0      9    13.368     4.192    0.20E-04    0.58E-05    0.56E-07
   0      9    13.368     8.473    0.60E-04    0.52E-04    0.21E-06
   1      9    13.368     2.474    0.22E-04    0.17E-04    0.28E-07
   1      9    13.368     3.912    0.94E-04    0.97E-04    0.20E-06
 Optimization of the real space projectors (new method)

 maximal supplied QI-value         = 24.76
 optimisation between [QCUT,QGAM] = [ 13.37, 26.98] = [ 50.04,203.89] Ry 
 Optimized for a Real-space Cutoff    1.17 Angstroem

   l    n(q)    QCUT    max X(q) W(low)/X(q) W(high)/X(q)  e(spline) 
   0      9    13.368    14.049    0.39E-04    0.34E-04    0.16E-06
   0      9    13.368     8.945    0.54E-04    0.47E-04    0.20E-06
   1      9    13.368     7.086    0.99E-04    0.10E-03    0.23E-06
   1      9    13.368     6.747    0.86E-04    0.89E-04    0.21E-06

 ----------------------------------------------------------------------------- 
|                                                                             |
|  ADVICE TO THIS USER RUNNING 'VASP/VAMP'   (HEAR YOUR MASTER'S VOICE ...):  |
|                                                                             |
|      You enforced a specific xc-type in the INCAR file,                     |
|      a different type was found on the POTCAR file                          |
|          I HOPE YOU KNOW, WHAT YOU ARE  DOING                               |
|                                                                             |
 ----------------------------------------------------------------------------- 

 PAW_PBE Ti_pv 07Sep2000                :
 energy of atom  1       EATOM=-1042.3781
 kinetic energy error for atom=    0.0006 (will be added to EATOM!!)
 PAW_PBE O 08Apr2002                    :
 energy of atom  2       EATOM= -432.3788
 kinetic energy error for atom=    0.0091 (will be added to EATOM!!)
  PAW_PBE F 08Apr2002                   :
 energy of atom  3       EATOM= -659.6475
 kinetic energy error for atom=    0.0140 (will be added to EATOM!!)
 
 
 POSCAR: TiOF2 2x2x2 config 1539                 
  positions in direct lattice
  velocities in cartesian coordinates
 exchange correlation table for  LEXCH =       14
   RHO(1)=    0.500       N(1)  =     2000
   RHO(2)=  100.500       N(2)  =     4000

 VTST: version 3.1, (03/28/14)

 CHAIN: initializing optimizer
 
 OPT: Using VASP QUASI-newton optimizer
 CHAIN: Read ICHAIN            0
 
 POSCAR: TiOF2 2x2x2 config 1539                 
  positions in direct lattice
  velocities in cartesian coordinates
 


--------------------------------------------------------------------------------------------------------


 ion  position               nearest neighbor table
   1  0.000  0.989  0.987-  11 1.83  15 1.84  17 1.95  21 1.95  23 2.00  27 2.04
   2  0.000  0.989  0.513-  12 1.83  15 1.84  18 1.95  22 1.95  24 2.00  27 2.04
   3  0.987  0.511  0.000-  11 1.83   9 1.84  28 1.95  29 1.95  23 2.00  19 2.04
   4  0.987  0.511  0.500-  12 1.83  10 1.84  28 1.95  29 1.95  24 2.00  20 2.04
   5  0.500  0.989  0.987-  13 1.83  16 1.84  17 1.95  21 1.95  25 2.00  30 2.04
   6  0.500  0.989  0.513-  14 1.83  16 1.84  18 1.95  22 1.95  26 2.00  30 2.04
   7  0.513  0.511  0.000-  13 1.83   9 1.84  31 1.95  32 1.95  25 2.00  19 2.04
   8  0.513  0.511  0.500-  14 1.83  10 1.84  31 1.95  32 1.95  26 2.00  20 2.04
   9  0.750  0.497  0.999-   3 1.84   7 1.84
  10  0.750  0.497  0.501-   8 1.84   4 1.84
  11  0.002  0.750  0.002-   1 1.83   3 1.83
  12  0.002  0.750  0.498-   2 1.83   4 1.83
  13  0.498  0.750  0.002-   5 1.83   7 1.83
  14  0.498  0.750  0.498-   6 1.83   8 1.83
  15  0.999  0.003  0.750-   2 1.84   1 1.84
  16  0.501  0.003  0.750-   5 1.84   6 1.84
  17  0.250  0.009  0.008-   5 1.95   1 1.95
  18  0.250  0.009  0.492-   2 1.95   6 1.95
  19  0.250  0.494  0.999-   3 2.04   7 2.04
  20  0.250  0.494  0.501-   8 2.04   4 2.04
  21  0.750  0.011  0.008-   5 1.95   1 1.95
  22  0.750  0.011  0.492-   2 1.95   6 1.95
  23  0.004  0.250  0.004-   1 2.00   3 2.00
  24  0.004  0.250  0.496-   2 2.00   4 2.00
  25  0.496  0.250  0.004-   5 2.00   7 2.00
  26  0.496  0.250  0.496-   6 2.00   8 2.00
  27  0.999  0.006  0.250-   2 2.04   1 2.04
  28  0.008  0.491  0.250-   3 1.95   4 1.95
  29  0.008  0.489  0.750-   3 1.95   4 1.95
  30  0.501  0.006  0.250-   5 2.04   6 2.04
  31  0.492  0.491  0.250-   8 1.95   7 1.95
  32  0.492  0.489  0.750-   8 1.95   7 1.95
 

IMPORTANT INFORMATION: All symmetrisations will be switched off!
NOSYMM: (Re-)initialisation of all symmetry stuff for point group C_1.

 
 
 KPOINTS: Title                                   

Automatic generation of k-mesh.
Space group operators:
 irot       det(A)        alpha          n_x          n_y          n_z        tau_x        tau_y        tau_z
    1     1.000000     0.000001     1.000000     0.000000     0.000000     0.000000     0.000000     0.000000
 
 Subroutine IBZKPT returns following result:
 ===========================================
 
 Found      4 irreducible k-points:
 
 Following reciprocal coordinates:
            Coordinates               Weight
  0.250000  0.250000  0.250000      2.000000
 -0.250000  0.250000  0.250000      2.000000
  0.250000 -0.250000  0.250000      2.000000
 -0.250000 -0.250000  0.250000      2.000000
 
 Following cartesian coordinates:
            Coordinates               Weight
  0.032286  0.032692  0.032286      2.000000
 -0.032286  0.032692  0.032286      2.000000
  0.032286 -0.032692  0.032286      2.000000
 -0.032286 -0.032692  0.032286      2.000000
 


--------------------------------------------------------------------------------------------------------




 Dimension of arrays:
   k-points           NKPTS =      4   k-points in BZ     NKDIM =      4   number of bands    NBANDS=    160
   number of dos      NEDOS =   3001   number of ions     NIONS =     32
   non local maximal  LDIM  =      6   non local SUM 2l+1 LMDIM =     18
   total plane-waves  NPLWV = 343000
   max r-space proj   IRMAX =  10371   max aug-charges    IRDMAX= 232520
   dimension x,y,z NGX =    70 NGY =   70 NGZ =   70
   dimension x,y,z NGXF=   140 NGYF=  140 NGZF=  140
   support grid    NGXF=   280 NGYF=  280 NGZF=  280
   ions per type =               8   8  16
   NGX,Y,Z   is equivalent  to a cutoff of  15.03, 15.22, 15.03 a.u.
   NGXF,Y,Z  is equivalent  to a cutoff of  30.06, 30.44, 30.06 a.u.

 SYSTEM =  LTO                                     
 POSCAR =  TiOF2 2x2x2 config 1539                 

 Startparameter for this run:
   NWRITE =      2    write-flag & timer
   PREC   = accura    normal or accurate (medium, high low for compatibility)
   ISTART =      1    job   : 0-new  1-cont  2-samecut
   ICHARG =      0    charge: 1-file 2-atom 10-const
   ISPIN  =      2    spin polarized calculation?
   LNONCOLLINEAR =      F non collinear calculations
   LSORBIT =      F    spin-orbit coupling
   INIWAV =      1    electr: 0-lowe 1-rand  2-diag
   LASPH  =      T    aspherical Exc in radial PAW
   METAGGA=      F    non-selfconsistent MetaGGA calc.

 Electronic Relaxation 1
   ENCUT  =  700.0 eV  51.45 Ry    7.17 a.u.  16.70 16.50 16.70*2*pi/ulx,y,z
   ENINI  =  700.0     initial cutoff
   ENAUG  =  613.6 eV  augmentation charge cutoff
   NELM   =     60;   NELMIN=  2; NELMDL=  0     # of ELM steps 
   EDIFF  = 0.1E-05   stopping-criterion for ELM
   LREAL  =      T    real-space projection
   NLSPLINE    = F    spline interpolate recip. space projectors
   LCOMPAT=      F    compatible to vasp.4.4
   GGA_COMPAT  = T    GGA compatible to vasp.4.4-vasp.4.6
   LMAXPAW     = -100 max onsite density
   LMAXMIX     =    4 max onsite mixed and CHGCAR
   VOSKOWN=      0    Vosko Wilk Nusair interpolation
   ROPT   =   -0.00010  -0.00010  -0.00010
 Ionic relaxation
   EDIFFG = -.1E-01   stopping-criterion for IOM
   NSW    =    100    number of steps for IOM
   NBLOCK =      1;   KBLOCK =    100    inner block; outer block 
   IBRION =      1    ionic relax: 0-MD 1-quasi-New 2-CG
   NFREE  =      0    steps in history (QN), initial steepest desc. (CG)
   ISIF   =      3    stress and relaxation
   IWAVPR =     11    prediction:  0-non 1-charg 2-wave 3-comb
   ISYM   =      0    0-nonsym 1-usesym 2-fastsym
   LCORR  =      T    Harris-Foulkes like correction to forces

   POTIM  = 0.5000    time-step for ionic-motion
   TEIN   =    0.0    initial temperature
   TEBEG  =    0.0;   TEEND  =   0.0 temperature during run
   SMASS  =  -3.00    Nose mass-parameter (am)
   estimated Nose-frequenzy (Omega)   =  0.10E-29 period in steps =****** mass=  -0.137E-26a.u.
   SCALEE = 1.0000    scale energy and forces
   NPACO  =    256;   APACO  = 16.0  distance and # of slots for P.C.
   PSTRESS=    0.0 pullay stress

  Mass of Ions in am
   POMASS =  47.88 16.00 19.00
  Ionic Valenz
   ZVAL   =  10.00  6.00  7.00
  Atomic Wigner-Seitz radii
   RWIGS  =  -1.00 -1.00 -1.00
  virtual crystal weights 
   VCA    =   1.00  1.00  1.00
   NELECT =     240.0000    total number of electrons
   NUPDOWN=      -1.0000    fix difference up-down

 DOS related values:
   EMIN   =  10.00;   EMAX   =-10.00  energy-range for DOS
   EFERMI =   0.00
   ISMEAR =     0;   SIGMA  =   0.01  broadening in eV -4-tet -1-fermi 0-gaus

 Electronic relaxation 2 (details)
   IALGO  =     38    algorithm
   LDIAG  =      T    sub-space diagonalisation (order eigenvalues)
   LSUBROT=      F    optimize rotation matrix (better conditioning)
   TURBO    =      0    0=normal 1=particle mesh
   IRESTART =      0    0=no restart 2=restart with 2 vectors
   NREBOOT  =      0    no. of reboots
   NMIN     =      0    reboot dimension
   EREF     =   0.00    reference energy to select bands
   IMIX   =      4    mixing-type and parameters
     AMIX     =   0.40;   BMIX     =  1.00
     AMIX_MAG =   1.60;   BMIX_MAG =  1.00
     AMIN     =   0.10
     WC   =   100.;   INIMIX=   1;  MIXPRE=   1;  MAXMIX= -45

 Intra band minimization:
   WEIMIN = 0.0010     energy-eigenvalue tresh-hold
   EBREAK =  0.16E-08  absolut break condition
   DEPER  =   0.30     relativ break condition  

   TIME   =   0.40     timestep for ELM

  volume/ion in A,a.u.               =      14.33        96.69
  Fermi-wavevector in a.u.,A,eV,Ry     =   1.319356  2.493222 23.683668  1.740701
  Thomas-Fermi vector in A             =   2.449260
 
 Write flags
   LWAVE        =      T    write WAVECAR
   LDOWNSAMPLE  =      F    k-point downsampling of WAVECAR
   LCHARG       =      T    write CHGCAR
   LVTOT        =      F    write LOCPOT, total local potential
   LVHAR        =      F    write LOCPOT, Hartree potential only
   LELF         =      F    write electronic localiz. function (ELF)
   LORBIT       =     11    0 simple, 1 ext, 2 COOP (PROOUT), +10 PAW based schemes


 Dipole corrections
   LMONO  =      F    monopole corrections only (constant potential shift)
   LDIPOL =      F    correct potential (dipole corrections)
   IDIPOL =      0    1-x, 2-y, 3-z, 4-all directions 
   EPSILON=  1.0000000 bulk dielectric constant

 LDA+U is selected, type is set to LDAUTYPE =  2
   angular momentum for each species LDAUL =     2   -1   -1
   U (eV)           for each species LDAUU =   4.2  0.0  0.0
   J (eV)           for each species LDAUJ =   0.0  0.0  0.0
 Exchange correlation treatment:
   GGA     =    PS    GGA type
   LEXCH   =    14    internal setting for exchange type
   VOSKOWN=      0    Vosko Wilk Nusair interpolation
   LHFCALC =     F    Hartree Fock is set to
   LHFONE  =     F    Hartree Fock one center treatment
   AEXX    =    0.0000 exact exchange contribution

 Linear response parameters
   LEPSILON=     F    determine dielectric tensor
   LRPA    =     F    only Hartree local field effects (RPA)
   LNABLA  =     F    use nabla operator in PAW spheres
   LVEL    =     F    velocity operator in full k-point grid
   LINTERFAST=   F  fast interpolation
   KINTER  =     0    interpolate to denser k-point grid
   CSHIFT  =0.1000    complex shift for real part using Kramers Kronig
   OMEGAMAX=  -1.0    maximum frequency
   DEG_THRESHOLD= 0.2000000E-02 threshold for treating states as degnerate
   RTIME   =   -0.100 relaxation time in fs
  (WPLASMAI=    0.000 imaginary part of plasma frequency in eV, 0.658/RTIME)
   DFIELD  = 0.0000000 0.0000000 0.0000000 field for delta impulse in time
 
 Orbital magnetization related:
   ORBITALMAG=     F  switch on orbital magnetization
   LCHIMAG   =     F  perturbation theory with respect to B field
   DQ        =  0.001000  dq finite difference perturbation B field
   LLRAUG    =     F  two centre corrections for induced B field



--------------------------------------------------------------------------------------------------------


 quasi-Newton-method for relaxation of ions
 charge density and potential will be updated during run
 spin polarized calculation
 Variant of blocked Davidson
 Davidson routine will perform the subspace rotation
 perform sub-space diagonalisation
    after iterative eigenvector-optimisation
 modified Broyden-mixing scheme, WC =      100.0
 initial mixing is a Kerker type mixing with AMIX =  0.4000 and BMIX =      1.0000
 Hartree-type preconditioning will be used
 using additional bands           40
 real space projection scheme for non local part
 use partial core corrections
 calculate Harris-corrections to forces 
   (improved forces if not selfconsistent)
 use gradient corrections 
 use of overlap-Matrix (Vanderbilt PP)
 Gauss-broadening in eV      SIGMA  =   0.01


--------------------------------------------------------------------------------------------------------


  energy-cutoff  :      700.00
  volume of cell :      458.51
      direct lattice vectors                 reciprocal lattice vectors
     7.743281801  0.000000008  0.000000022     0.129144209  0.000000000 -0.000000000
    -0.000000020  7.647147945 -0.000000001    -0.000000000  0.130767707  0.000000000
     0.000000018 -0.000000004  7.743282223    -0.000000000  0.000000000  0.129144202

  length of vectors
     7.743281801  7.647147945  7.743282223     0.129144209  0.130767707  0.129144202


 
 old parameters found on file WAVECAR:
  energy-cutoff  :      700.00
  volume of cell :      438.28
      direct lattice vectors                 reciprocal lattice vectors
     7.596000000  0.000000000  0.000000000     0.131648236  0.000000000  0.000000000
     0.000000000  7.596000000  0.000000000     0.000000000  0.131648236  0.000000000
     0.000000000  0.000000000  7.596000000     0.000000000  0.000000000  0.131648236

  length of vectors

 
 k-points in units of 2pi/SCALE and weight: Title                                   
   0.03228605  0.03269193  0.03228605       0.250
  -0.03228605  0.03269193  0.03228605       0.250
   0.03228605 -0.03269193  0.03228605       0.250
  -0.03228605 -0.03269193  0.03228605       0.250
 
 k-points in reciprocal lattice and weights: Title                                   
   0.25000000  0.25000000  0.25000000       0.250
  -0.25000000  0.25000000  0.25000000       0.250
   0.25000000 -0.25000000  0.25000000       0.250
  -0.25000000 -0.25000000  0.25000000       0.250
 
 position of ions in fractional coordinates (direct lattice) 
   0.00033752  0.98879197  0.98741987
   0.00033755  0.98879192  0.51258015
   0.98741911  0.51120731  0.00033764
   0.98741923  0.51120729  0.49966235
   0.49966251  0.98879184  0.98741979
   0.49966248  0.98879198  0.51258006
   0.51258071  0.51120725  0.00033769
   0.51258082  0.51120735  0.49966237
   0.75000031  0.49744941  0.99932281
   0.74999995  0.49744941  0.50067721
   0.00198349  0.75000172  0.00198385
   0.00198352  0.75000195  0.49801615
   0.49801649  0.75000234  0.00198382
   0.49801651  0.75000171  0.49801617
   0.99932284  0.00255056  0.74999993
   0.50067721  0.00255058  0.75000036
   0.25000016  0.00945221  0.00825057
   0.24999992  0.00945223  0.49174938
   0.24999985  0.49447980  0.99929144
   0.25000003  0.49447974  0.50070855
   0.74999985  0.01105510  0.00812537
   0.75000012  0.01105531  0.49187457
   0.00367349  0.24999954  0.00367319
   0.00367351  0.24999944  0.49632680
   0.49632651  0.24999931  0.00367319
   0.49632652  0.24999956  0.49632681
   0.99929174  0.00552172  0.25000005
   0.00825196  0.49054787  0.24999993
   0.00812659  0.48894203  0.75000007
   0.50070830  0.00552175  0.24999982
   0.49174790  0.49054795  0.25000013
   0.49187329  0.48894184  0.74999991
 
 position of ions in cartesian coordinates  (Angst):
   0.00261353  7.56143846  7.64587072
   0.00261371  7.56143811  3.96905279
   7.64586439  3.90927796  0.00261444
   7.64586532  3.90927779  3.86902664
   3.86902765  7.56143747  7.64587013
   3.86902740  7.56143855  3.96905209
   3.96905688  3.90927745  0.00261482
   3.96905774  3.90927826  3.86902678
   5.80746379  3.80406926  7.73803859
   5.80746095  3.80406920  3.87688499
   0.01535872  5.73537410  0.01536148
   0.01535894  5.73537586  3.85627958
   3.85628204  5.73537888  0.01536131
   3.85628219  5.73537400  3.85627974
   7.73803837  0.01950448  5.80746115
   3.87688477  0.01950470  5.80746444
   1.93582169  0.07228244  0.06388651
   1.93581985  0.07228259  3.80775420
   1.93581933  3.78136021  7.73779567
   1.93582070  3.78135975  3.87712765
   5.80746019  0.08454001  0.06291707
   5.80746226  0.08454163  3.80872360
   0.02844487  1.91178346  0.02844254
   0.02844504  1.91178270  3.84319849
   3.84319599  1.91178170  0.02844254
   3.84319613  1.91178366  3.84319858
   7.73779751  0.04222543  1.93582094
   0.06389721  3.75129211  1.93581998
   0.06292651  3.73901204  5.80746219
   3.87712546  0.04222564  1.93581920
   3.80774254  3.75129278  1.93582161
   3.80871353  3.73901060  5.80746096
 


--------------------------------------------------------------------------------------------------------


 k-point  1 :   0.2500 0.2500 0.2500  plane waves:   19270
 k-point  2 :  -0.2500 0.2500 0.2500  plane waves:   19270
 k-point  3 :   0.2500-0.2500 0.2500  plane waves:   19270
 k-point  4 :  -0.2500-0.2500 0.2500  plane waves:   19270

 maximum and minimum number of plane-waves per node :      2428     2396

 maximum number of plane-waves:     19270
 maximum index in each direction: 
   IXMAX=   16   IYMAX=   16   IZMAX=   16
   IXMIN=  -16   IYMIN=  -16   IZMIN=  -16


 real space projection operators:
  total allocation   :      18658.00 KBytes
  max/ min on nodes  :       2479.78       1943.56


 parallel 3D FFT for wavefunctions:
    minimum data exchange during FFTs selected (reduces bandwidth)
 parallel 3D FFT for charge:
    minimum data exchange during FFTs selected (reduces bandwidth)


 total amount of memory used by VASP MPI-rank0    62256. kBytes
=======================================================================

   base      :      30000. kBytes
   nonlr-proj:       8640. kBytes
   fftplans  :       8422. kBytes
   grid      :       8783. kBytes
   one-center:        124. kBytes
   wavefun   :       6287. kBytes
 
     INWAV:  cpu time    3.7954: real time    4.8210
 Broyden mixing: mesh for mixing (old mesh)
   NGX = 33   NGY = 33   NGZ = 33
  (NGX  =140   NGY  =140   NGZ  =140)
  gives a total of  35937 points

 charge density for first step will be calculated from the start-wavefunctions


--------------------------------------------------------------------------------------------------------


 Maximum index for non-local projection operator         1376
 Maximum index for augmentation-charges         7619 (set IRDMAX)


--------------------------------------------------------------------------------------------------------


 initial charge from wavefunction
 First call to EWALD:  gamma=   0.230
 Maximum number of real-space cells 3x 3x 3
 Maximum number of reciprocal cells 3x 3x 3

    FEWALD:  cpu time    0.0040: real time    0.0032


--------------------------------------- Iteration      1(   1)  ---------------------------------------


    POTLOK:  cpu time    0.1970: real time    0.3366
    SETDIJ:  cpu time    0.8529: real time    0.8525
     EDDAV:  cpu time    3.7274: real time    3.7273
       DOS:  cpu time    0.0010: real time    0.0009
    CHARGE:  cpu time    0.4179: real time    0.4178
    MIXING:  cpu time    0.0020: real time    0.0021
    --------------------------------------------
      LOOP:  cpu time    5.1982: real time    5.3372

 eigenvalue-minimisations  :  2560
 total energy-change (2. order) :-0.2135819E+03  (-0.5699062E-01)
 number of electron     240.0000002 magnetization      -0.0000000
 augmentation part       61.9436756 magnetization      -0.0000000

 Broyden mixing:
  rms(total) = 0.57331E-02    rms(broyden)= 0.53920E-02
  rms(prec ) = 0.56855E-02
  weight for this iteration     100.00

 Free energy of the ion-electron system (eV)
  ---------------------------------------------------
  alpha Z        PSCENC =       763.70293240
  Ewald energy   TEWEN  =    -12844.94702308
  -Hartree energ DENC   =     -8206.18257620
  -exchange      EXHF   =         0.00000000
  -V(xc)+E(xc)   XCENC  =      1119.87220031
  PAW double counting   =     18021.18459414   -18145.07530021
  entropy T*S    EENTRO =        -0.00000000
  eigenvalues    EBANDS =     -3224.48997347
  atomic energy  EATOM  =     22302.35321627
  Solvation  Ediel_sol  =         0.00000000
  ---------------------------------------------------
  free energy    TOTEN  =      -213.58192982 eV

  energy without entropy =     -213.58192982  energy(sigma->0) =     -213.58192982


--------------------------------------------------------------------------------------------------------




--------------------------------------- Iteration      1(   2)  ---------------------------------------


    POTLOK:  cpu time    0.1550: real time    0.1996
    SETDIJ:  cpu time    0.8419: real time    0.8396
     EDDAV:  cpu time    3.3485: real time    3.3468
       DOS:  cpu time    0.0010: real time    0.0009
    CHARGE:  cpu time    0.3839: real time    0.3823
    MIXING:  cpu time    0.0020: real time    0.0024
    --------------------------------------------
      LOOP:  cpu time    4.7323: real time    4.7715

 eigenvalue-minimisations  :  2432
 total energy-change (2. order) :-0.5723463E-04  (-0.1952079E-05)
 number of electron     240.0000002 magnetization      -0.0000000
 augmentation part       61.9443697 magnetization      -0.0000000

 Broyden mixing:
  rms(total) = 0.32181E-02    rms(broyden)= 0.31947E-02
  rms(prec ) = 0.33631E-02
  weight for this iteration     100.00

 eigenvalues of (default mixing * dielectric matrix)
  average eigenvalue GAMMA=   2.3039
  2.3039

 Free energy of the ion-electron system (eV)
  ---------------------------------------------------
  alpha Z        PSCENC =       763.70293240
  Ewald energy   TEWEN  =    -12844.94702308
  -Hartree energ DENC   =     -8206.12808232
  -exchange      EXHF   =         0.00000000
  -V(xc)+E(xc)   XCENC  =      1119.86898524
  PAW double counting   =     18021.74285221   -18145.62194921
  entropy T*S    EENTRO =        -0.00000000
  eigenvalues    EBANDS =     -3224.55291857
  atomic energy  EATOM  =     22302.35321627
  Solvation  Ediel_sol  =         0.00000000
  ---------------------------------------------------
  free energy    TOTEN  =      -213.58198705 eV

  energy without entropy =     -213.58198705  energy(sigma->0) =     -213.58198705


--------------------------------------------------------------------------------------------------------




--------------------------------------- Iteration      1(   3)  ---------------------------------------


    POTLOK:  cpu time    0.1530: real time    0.1716
    SETDIJ:  cpu time    0.8469: real time    0.8447
     EDDAV:  cpu time    3.4185: real time    3.4175
       DOS:  cpu time    0.0010: real time    0.0010
    CHARGE:  cpu time    0.3859: real time    0.3836
    MIXING:  cpu time    0.0020: real time    0.0024
    --------------------------------------------
      LOOP:  cpu time    4.8073: real time    4.8209

 eigenvalue-minimisations  :  2464
 total energy-change (2. order) :-0.6111403E-04  (-0.1102764E-05)
 number of electron     240.0000002 magnetization      -0.0000000
 augmentation part       61.9447198 magnetization      -0.0000000

 Broyden mixing:
  rms(total) = 0.42652E-03    rms(broyden)= 0.41901E-03
  rms(prec ) = 0.47359E-03
  weight for this iteration     100.00

 eigenvalues of (default mixing * dielectric matrix)
  average eigenvalue GAMMA=   1.7498
  1.0091  2.4906

 Free energy of the ion-electron system (eV)
  ---------------------------------------------------
  alpha Z        PSCENC =       763.70293240
  Ewald energy   TEWEN  =    -12844.94702308
  -Hartree energ DENC   =     -8206.16127922
  -exchange      EXHF   =         0.00000000
  -V(xc)+E(xc)   XCENC  =      1119.87147593
  PAW double counting   =     18022.53689746   -18146.40546087
  entropy T*S    EENTRO =        -0.00000000
  eigenvalues    EBANDS =     -3224.53280707
  atomic energy  EATOM  =     22302.35321627
  Solvation  Ediel_sol  =         0.00000000
  ---------------------------------------------------
  free energy    TOTEN  =      -213.58204817 eV

  energy without entropy =     -213.58204817  energy(sigma->0) =     -213.58204817


--------------------------------------------------------------------------------------------------------




--------------------------------------- Iteration      1(   4)  ---------------------------------------


    POTLOK:  cpu time    0.1550: real time    0.1815
    SETDIJ:  cpu time    0.8279: real time    0.8386
     EDDAV:  cpu time    2.3626: real time    2.4088
       DOS:  cpu time    0.0010: real time    0.0009
    CHARGE:  cpu time    0.3739: real time    0.3840
    MIXING:  cpu time    0.0020: real time    0.0022
    --------------------------------------------
      LOOP:  cpu time    3.7224: real time    3.8160

 eigenvalue-minimisations  :  1376
 total energy-change (2. order) :-0.1176617E-05  (-0.5970188E-07)
 number of electron     240.0000002 magnetization      -0.0000000
 augmentation part       61.9444542 magnetization       0.0000000

 Broyden mixing:
  rms(total) = 0.13058E-03    rms(broyden)= 0.12941E-03
  rms(prec ) = 0.17581E-03
  weight for this iteration     100.00

 eigenvalues of (default mixing * dielectric matrix)
  average eigenvalue GAMMA=   1.4514
  2.5003  1.1152  0.7386

 Free energy of the ion-electron system (eV)
  ---------------------------------------------------
  alpha Z        PSCENC =       763.70293240
  Ewald energy   TEWEN  =    -12844.94702308
  -Hartree energ DENC   =     -8206.17745574
  -exchange      EXHF   =         0.00000000
  -V(xc)+E(xc)   XCENC  =      1119.87219916
  PAW double counting   =     18022.57656070   -18146.44377830
  entropy T*S    EENTRO =        -0.00000000
  eigenvalues    EBANDS =     -3224.51870075
  atomic energy  EATOM  =     22302.35321627
  Solvation  Ediel_sol  =         0.00000000
  ---------------------------------------------------
  free energy    TOTEN  =      -213.58204935 eV

  energy without entropy =     -213.58204935  energy(sigma->0) =     -213.58204935


--------------------------------------------------------------------------------------------------------




--------------------------------------- Iteration      1(   5)  ---------------------------------------


    POTLOK:  cpu time    0.1470: real time    0.1648
    SETDIJ:  cpu time    0.8409: real time    0.8413
     EDDAV:  cpu time    2.2817: real time    2.2812
       DOS:  cpu time    0.0010: real time    0.0009
    --------------------------------------------
      LOOP:  cpu time    3.2705: real time    3.2882

 eigenvalue-minimisations  :  1280
 total energy-change (2. order) :-0.3043169E-07  (-0.1720954E-07)
 number of electron     240.0000002 magnetization      -0.0000000
 augmentation part       61.9444542 magnetization       0.0000000

 Free energy of the ion-electron system (eV)
  ---------------------------------------------------
  alpha Z        PSCENC =       763.70293240
  Ewald energy   TEWEN  =    -12844.94702308
  -Hartree energ DENC   =     -8206.18003379
  -exchange      EXHF   =         0.00000000
  -V(xc)+E(xc)   XCENC  =      1119.87242746
  PAW double counting   =     18022.54712492   -18146.41449710
  entropy T*S    EENTRO =        -0.00000000
  eigenvalues    EBANDS =     -3224.51619647
  atomic energy  EATOM  =     22302.35321627
  Solvation  Ediel_sol  =         0.00000000
  ---------------------------------------------------
  free energy    TOTEN  =      -213.58204938 eV

  energy without entropy =     -213.58204938  energy(sigma->0) =     -213.58204938


--------------------------------------------------------------------------------------------------------




 average (electrostatic) potential at core
  the test charge radii are     1.0397  0.7215  0.7167
  (the norm of the test charge is              1.0000)
       1 -58.8899       2 -58.8898       3 -58.8901       4 -58.8901       5 -58.8898
       6 -58.8899       7 -58.8901       8 -58.8901       9 -74.0609      10 -74.0609
      11 -74.1140      12 -74.1140      13 -74.1140      14 -74.1140      15 -74.0607
      16 -74.0607      17 -79.4118      18 -79.4118      19 -78.4327      20 -78.4326
      21 -79.4015      22 -79.4015      23 -78.6597      24 -78.6597      25 -78.6597
      26 -78.6597      27 -78.4326      28 -79.4120      29 -79.4016      30 -78.4326
      31 -79.4120      32 -79.4016
 
 
 
 E-fermi :  -1.0409     XC(G=0):  -9.0234     alpha+bet : -7.7066


 spin component 1

 k-point     1 :       0.2500    0.2500    0.2500
  band No.  band energies     occupation 
      1     -34.9522      1.00000
      2     -34.9519      1.00000
      3     -34.9496      1.00000
      4     -34.9494      1.00000
      5     -34.8706      1.00000
      6     -34.8704      1.00000
      7     -34.8682      1.00000
      8     -34.8680      1.00000
      9     -34.7736      1.00000
     10     -34.7692      1.00000
     11     -34.7691      1.00000
     12     -34.7640      1.00000
     13     -34.7545      1.00000
     14     -34.7474      1.00000
     15     -34.7472      1.00000
     16     -34.7446      1.00000
     17     -34.7050      1.00000
     18     -34.7014      1.00000
     19     -34.7014      1.00000
     20     -34.6943      1.00000
     21     -34.6866      1.00000
     22     -34.6814      1.00000
     23     -34.6812      1.00000
     24     -34.6765      1.00000
     25     -23.2631      1.00000
     26     -23.2354      1.00000
     27     -23.2245      1.00000
     28     -23.2225      1.00000
     29     -22.8871      1.00000
     30     -22.8860      1.00000
     31     -22.8772      1.00000
     32     -22.8702      1.00000
     33     -22.3600      1.00000
     34     -22.3501      1.00000
     35     -22.3482      1.00000
     36     -22.3282      1.00000
     37     -22.0867      1.00000
     38     -22.0648      1.00000
     39     -22.0647      1.00000
     40     -22.0447      1.00000
     41     -16.7404      1.00000
     42     -16.6868      1.00000
     43     -16.6866      1.00000
     44     -16.5952      1.00000
     45     -16.5576      1.00000
     46     -16.4665      1.00000
     47     -16.4648      1.00000
     48     -16.4318      1.00000
     49      -6.7487      1.00000
     50      -6.7258      1.00000
     51      -6.7219      1.00000
     52      -6.7110      1.00000
     53      -5.8951      1.00000
     54      -5.8541      1.00000
     55      -5.8524      1.00000
     56      -5.7778      1.00000
     57      -5.7741      1.00000
     58      -5.7673      1.00000
     59      -5.6708      1.00000
     60      -5.6613      1.00000
     61      -5.5645      1.00000
     62      -5.5616      1.00000
     63      -5.5040      1.00000
     64      -5.4606      1.00000
     65      -5.1918      1.00000
     66      -5.1576      1.00000
     67      -5.0923      1.00000
     68      -5.0864      1.00000
     69      -5.0507      1.00000
     70      -5.0135      1.00000
     71      -4.6274      1.00000
     72      -4.6187      1.00000
     73      -4.6042      1.00000
     74      -4.5531      1.00000
     75      -4.5003      1.00000
     76      -4.4664      1.00000
     77      -4.4423      1.00000
     78      -4.4326      1.00000
     79      -4.3766      1.00000
     80      -4.3471      1.00000
     81      -4.1664      1.00000
     82      -4.0966      1.00000
     83      -4.0431      1.00000
     84      -3.9595      1.00000
     85      -3.7962      1.00000
     86      -3.7795      1.00000
     87      -3.7121      1.00000
     88      -3.6276      1.00000
     89      -3.5778      1.00000
     90      -3.5130      1.00000
     91      -3.4783      1.00000
     92      -3.4494      1.00000
     93      -3.2212      1.00000
     94      -3.1960      1.00000
     95      -3.1717      1.00000
     96      -3.1555      1.00000
     97      -3.1272      1.00000
     98      -3.1030      1.00000
     99      -3.0762      1.00000
    100      -3.0272      1.00000
    101      -2.9669      1.00000
    102      -2.9573      1.00000
    103      -2.9040      1.00000
    104      -2.8226      1.00000
    105      -2.5219      1.00000
    106      -2.5083      1.00000
    107      -2.4824      1.00000
    108      -2.4756      1.00000
    109      -2.1022      1.00000
    110      -2.0713      1.00000
    111      -1.9376      1.00000
    112      -1.9349      1.00000
    113      -1.9123      1.00000
    114      -1.9032      1.00000
    115      -1.7915      1.00000
    116      -1.7792      1.00000
    117      -1.1421      1.00000
    118      -1.1217      1.00000
    119      -1.1200      1.00000
    120      -1.0928      1.00000
    121       2.1656      0.00000
    122       2.1761      0.00000
    123       2.2043      0.00000
    124       2.2099      0.00000
    125       2.2453      0.00000
    126       2.2789      0.00000
    127       2.6892      0.00000
    128       2.6942      0.00000
    129       2.8722      0.00000
    130       2.9003      0.00000
    131       2.9204      0.00000
    132       2.9282      0.00000
    133       3.1581      0.00000
    134       3.2115      0.00000
    135       3.2815      0.00000
    136       3.3474      0.00000
    137       3.3975      0.00000
    138       3.4457      0.00000
    139       3.5802      0.00000
    140       3.5971      0.00000
    141       3.7350      0.00000
    142       3.7989      0.00000
    143       3.8192      0.00000
    144       3.8453      0.00000
    145       3.8998      0.00000
    146       3.9280      0.00000
    147       3.9418      0.00000
    148       3.9493      0.00000
    149       4.0459      0.00000
    150       4.3226      0.00000
    151       4.3691      0.00000
    152       4.5158      0.00000
    153       4.9882      0.00000
    154       5.0204      0.00000
    155       5.4533      0.00000
    156       5.6610      0.00000
    157       5.8964      0.00000
    158       6.3418      0.00000
    159       6.3442      0.00000
    160       6.5266      0.00000

 k-point     2 :      -0.2500    0.2500    0.2500
  band No.  band energies     occupation 
      1     -34.9522      1.00000
      2     -34.9519      1.00000
      3     -34.9496      1.00000
      4     -34.9494      1.00000
      5     -34.8706      1.00000
      6     -34.8704      1.00000
      7     -34.8682      1.00000
      8     -34.8680      1.00000
      9     -34.7736      1.00000
     10     -34.7692      1.00000
     11     -34.7691      1.00000
     12     -34.7640      1.00000
     13     -34.7545      1.00000
     14     -34.7474      1.00000
     15     -34.7472      1.00000
     16     -34.7446      1.00000
     17     -34.7050      1.00000
     18     -34.7014      1.00000
     19     -34.7014      1.00000
     20     -34.6943      1.00000
     21     -34.6866      1.00000
     22     -34.6814      1.00000
     23     -34.6812      1.00000
     24     -34.6765      1.00000
     25     -23.2631      1.00000
     26     -23.2354      1.00000
     27     -23.2245      1.00000
     28     -23.2225      1.00000
     29     -22.8871      1.00000
     30     -22.8860      1.00000
     31     -22.8772      1.00000
     32     -22.8702      1.00000
     33     -22.3600      1.00000
     34     -22.3501      1.00000
     35     -22.3482      1.00000
     36     -22.3282      1.00000
     37     -22.0867      1.00000
     38     -22.0648      1.00000
     39     -22.0647      1.00000
     40     -22.0447      1.00000
     41     -16.7404      1.00000
     42     -16.6868      1.00000
     43     -16.6866      1.00000
     44     -16.5952      1.00000
     45     -16.5576      1.00000
     46     -16.4665      1.00000
     47     -16.4648      1.00000
     48     -16.4318      1.00000
     49      -6.7487      1.00000
     50      -6.7258      1.00000
     51      -6.7219      1.00000
     52      -6.7110      1.00000
     53      -5.8951      1.00000
     54      -5.8541      1.00000
     55      -5.8524      1.00000
     56      -5.7778      1.00000
     57      -5.7741      1.00000
     58      -5.7673      1.00000
     59      -5.6708      1.00000
     60      -5.6613      1.00000
     61      -5.5645      1.00000
     62      -5.5616      1.00000
     63      -5.5040      1.00000
     64      -5.4606      1.00000
     65      -5.1918      1.00000
     66      -5.1576      1.00000
     67      -5.0923      1.00000
     68      -5.0864      1.00000
     69      -5.0507      1.00000
     70      -5.0135      1.00000
     71      -4.6274      1.00000
     72      -4.6187      1.00000
     73      -4.6042      1.00000
     74      -4.5531      1.00000
     75      -4.5003      1.00000
     76      -4.4664      1.00000
     77      -4.4423      1.00000
     78      -4.4326      1.00000
     79      -4.3766      1.00000
     80      -4.3471      1.00000
     81      -4.1664      1.00000
     82      -4.0966      1.00000
     83      -4.0431      1.00000
     84      -3.9595      1.00000
     85      -3.7962      1.00000
     86      -3.7795      1.00000
     87      -3.7121      1.00000
     88      -3.6276      1.00000
     89      -3.5778      1.00000
     90      -3.5130      1.00000
     91      -3.4783      1.00000
     92      -3.4494      1.00000
     93      -3.2212      1.00000
     94      -3.1960      1.00000
     95      -3.1717      1.00000
     96      -3.1555      1.00000
     97      -3.1272      1.00000
     98      -3.1030      1.00000
     99      -3.0762      1.00000
    100      -3.0272      1.00000
    101      -2.9669      1.00000
    102      -2.9573      1.00000
    103      -2.9040      1.00000
    104      -2.8226      1.00000
    105      -2.5219      1.00000
    106      -2.5083      1.00000
    107      -2.4824      1.00000
    108      -2.4756      1.00000
    109      -2.1022      1.00000
    110      -2.0713      1.00000
    111      -1.9376      1.00000
    112      -1.9349      1.00000
    113      -1.9123      1.00000
    114      -1.9032      1.00000
    115      -1.7915      1.00000
    116      -1.7792      1.00000
    117      -1.1421      1.00000
    118      -1.1217      1.00000
    119      -1.1200      1.00000
    120      -1.0928      1.00000
    121       2.1656      0.00000
    122       2.1761      0.00000
    123       2.2043      0.00000
    124       2.2099      0.00000
    125       2.2453      0.00000
    126       2.2789      0.00000
    127       2.6892      0.00000
    128       2.6942      0.00000
    129       2.8721      0.00000
    130       2.9003      0.00000
    131       2.9204      0.00000
    132       2.9282      0.00000
    133       3.1581      0.00000
    134       3.2115      0.00000
    135       3.2815      0.00000
    136       3.3474      0.00000
    137       3.3975      0.00000
    138       3.4457      0.00000
    139       3.5802      0.00000
    140       3.5971      0.00000
    141       3.7350      0.00000
    142       3.7989      0.00000
    143       3.8192      0.00000
    144       3.8453      0.00000
    145       3.8998      0.00000
    146       3.9280      0.00000
    147       3.9418      0.00000
    148       3.9493      0.00000
    149       4.0459      0.00000
    150       4.3226      0.00000
    151       4.3691      0.00000
    152       4.5158      0.00000
    153       4.9882      0.00000
    154       5.0204      0.00000
    155       5.4533      0.00000
    156       5.6610      0.00000
    157       5.8964      0.00000
    158       6.3418      0.00000
    159       6.3442      0.00000
    160       6.5266      0.00000

 k-point     3 :       0.2500   -0.2500    0.2500
  band No.  band energies     occupation 
      1     -34.9522      1.00000
      2     -34.9519      1.00000
      3     -34.9496      1.00000
      4     -34.9494      1.00000
      5     -34.8706      1.00000
      6     -34.8704      1.00000
      7     -34.8682      1.00000
      8     -34.8680      1.00000
      9     -34.7736      1.00000
     10     -34.7692      1.00000
     11     -34.7691      1.00000
     12     -34.7640      1.00000
     13     -34.7545      1.00000
     14     -34.7474      1.00000
     15     -34.7472      1.00000
     16     -34.7446      1.00000
     17     -34.7050      1.00000
     18     -34.7014      1.00000
     19     -34.7014      1.00000
     20     -34.6943      1.00000
     21     -34.6866      1.00000
     22     -34.6814      1.00000
     23     -34.6812      1.00000
     24     -34.6765      1.00000
     25     -23.2631      1.00000
     26     -23.2354      1.00000
     27     -23.2245      1.00000
     28     -23.2225      1.00000
     29     -22.8871      1.00000
     30     -22.8860      1.00000
     31     -22.8772      1.00000
     32     -22.8702      1.00000
     33     -22.3600      1.00000
     34     -22.3501      1.00000
     35     -22.3482      1.00000
     36     -22.3282      1.00000
     37     -22.0867      1.00000
     38     -22.0648      1.00000
     39     -22.0647      1.00000
     40     -22.0447      1.00000
     41     -16.7404      1.00000
     42     -16.6868      1.00000
     43     -16.6866      1.00000
     44     -16.5952      1.00000
     45     -16.5576      1.00000
     46     -16.4665      1.00000
     47     -16.4648      1.00000
     48     -16.4318      1.00000
     49      -6.7487      1.00000
     50      -6.7258      1.00000
     51      -6.7219      1.00000
     52      -6.7110      1.00000
     53      -5.8951      1.00000
     54      -5.8541      1.00000
     55      -5.8524      1.00000
     56      -5.7778      1.00000
     57      -5.7741      1.00000
     58      -5.7673      1.00000
     59      -5.6708      1.00000
     60      -5.6613      1.00000
     61      -5.5645      1.00000
     62      -5.5616      1.00000
     63      -5.5040      1.00000
     64      -5.4606      1.00000
     65      -5.1918      1.00000
     66      -5.1576      1.00000
     67      -5.0923      1.00000
     68      -5.0864      1.00000
     69      -5.0507      1.00000
     70      -5.0135      1.00000
     71      -4.6274      1.00000
     72      -4.6187      1.00000
     73      -4.6042      1.00000
     74      -4.5531      1.00000
     75      -4.5003      1.00000
     76      -4.4664      1.00000
     77      -4.4423      1.00000
     78      -4.4326      1.00000
     79      -4.3766      1.00000
     80      -4.3471      1.00000
     81      -4.1664      1.00000
     82      -4.0966      1.00000
     83      -4.0431      1.00000
     84      -3.9595      1.00000
     85      -3.7962      1.00000
     86      -3.7795      1.00000
     87      -3.7121      1.00000
     88      -3.6276      1.00000
     89      -3.5778      1.00000
     90      -3.5130      1.00000
     91      -3.4783      1.00000
     92      -3.4494      1.00000
     93      -3.2212      1.00000
     94      -3.1960      1.00000
     95      -3.1717      1.00000
     96      -3.1555      1.00000
     97      -3.1272      1.00000
     98      -3.1030      1.00000
     99      -3.0762      1.00000
    100      -3.0272      1.00000
    101      -2.9669      1.00000
    102      -2.9573      1.00000
    103      -2.9040      1.00000
    104      -2.8226      1.00000
    105      -2.5219      1.00000
    106      -2.5083      1.00000
    107      -2.4824      1.00000
    108      -2.4756      1.00000
    109      -2.1022      1.00000
    110      -2.0713      1.00000
    111      -1.9376      1.00000
    112      -1.9349      1.00000
    113      -1.9123      1.00000
    114      -1.9032      1.00000
    115      -1.7915      1.00000
    116      -1.7792      1.00000
    117      -1.1421      1.00000
    118      -1.1217      1.00000
    119      -1.1200      1.00000
    120      -1.0928      1.00000
    121       2.1656      0.00000
    122       2.1761      0.00000
    123       2.2043      0.00000
    124       2.2099      0.00000
    125       2.2453      0.00000
    126       2.2789      0.00000
    127       2.6892      0.00000
    128       2.6942      0.00000
    129       2.8722      0.00000
    130       2.9003      0.00000
    131       2.9204      0.00000
    132       2.9282      0.00000
    133       3.1581      0.00000
    134       3.2115      0.00000
    135       3.2815      0.00000
    136       3.3474      0.00000
    137       3.3975      0.00000
    138       3.4457      0.00000
    139       3.5802      0.00000
    140       3.5971      0.00000
    141       3.7350      0.00000
    142       3.7989      0.00000
    143       3.8192      0.00000
    144       3.8453      0.00000
    145       3.8998      0.00000
    146       3.9280      0.00000
    147       3.9418      0.00000
    148       3.9493      0.00000
    149       4.0459      0.00000
    150       4.3226      0.00000
    151       4.3691      0.00000
    152       4.5158      0.00000
    153       4.9882      0.00000
    154       5.0204      0.00000
    155       5.4533      0.00000
    156       5.6610      0.00000
    157       5.8964      0.00000
    158       6.3418      0.00000
    159       6.3442      0.00000
    160       6.5266      0.00000

 k-point     4 :      -0.2500   -0.2500    0.2500
  band No.  band energies     occupation 
      1     -34.9522      1.00000
      2     -34.9519      1.00000
      3     -34.9496      1.00000
      4     -34.9494      1.00000
      5     -34.8706      1.00000
      6     -34.8704      1.00000
      7     -34.8682      1.00000
      8     -34.8680      1.00000
      9     -34.7736      1.00000
     10     -34.7692      1.00000
     11     -34.7691      1.00000
     12     -34.7640      1.00000
     13     -34.7545      1.00000
     14     -34.7474      1.00000
     15     -34.7472      1.00000
     16     -34.7446      1.00000
     17     -34.7050      1.00000
     18     -34.7014      1.00000
     19     -34.7014      1.00000
     20     -34.6943      1.00000
     21     -34.6866      1.00000
     22     -34.6814      1.00000
     23     -34.6812      1.00000
     24     -34.6765      1.00000
     25     -23.2631      1.00000
     26     -23.2354      1.00000
     27     -23.2245      1.00000
     28     -23.2225      1.00000
     29     -22.8871      1.00000
     30     -22.8860      1.00000
     31     -22.8772      1.00000
     32     -22.8702      1.00000
     33     -22.3600      1.00000
     34     -22.3501      1.00000
     35     -22.3482      1.00000
     36     -22.3282      1.00000
     37     -22.0867      1.00000
     38     -22.0648      1.00000
     39     -22.0647      1.00000
     40     -22.0447      1.00000
     41     -16.7404      1.00000
     42     -16.6868      1.00000
     43     -16.6866      1.00000
     44     -16.5952      1.00000
     45     -16.5576      1.00000
     46     -16.4665      1.00000
     47     -16.4648      1.00000
     48     -16.4318      1.00000
     49      -6.7487      1.00000
     50      -6.7258      1.00000
     51      -6.7219      1.00000
     52      -6.7110      1.00000
     53      -5.8951      1.00000
     54      -5.8541      1.00000
     55      -5.8524      1.00000
     56      -5.7778      1.00000
     57      -5.7741      1.00000
     58      -5.7673      1.00000
     59      -5.6708      1.00000
     60      -5.6613      1.00000
     61      -5.5645      1.00000
     62      -5.5616      1.00000
     63      -5.5040      1.00000
     64      -5.4606      1.00000
     65      -5.1918      1.00000
     66      -5.1576      1.00000
     67      -5.0923      1.00000
     68      -5.0864      1.00000
     69      -5.0507      1.00000
     70      -5.0135      1.00000
     71      -4.6274      1.00000
     72      -4.6187      1.00000
     73      -4.6042      1.00000
     74      -4.5531      1.00000
     75      -4.5003      1.00000
     76      -4.4664      1.00000
     77      -4.4423      1.00000
     78      -4.4326      1.00000
     79      -4.3766      1.00000
     80      -4.3471      1.00000
     81      -4.1664      1.00000
     82      -4.0966      1.00000
     83      -4.0431      1.00000
     84      -3.9595      1.00000
     85      -3.7962      1.00000
     86      -3.7795      1.00000
     87      -3.7121      1.00000
     88      -3.6276      1.00000
     89      -3.5778      1.00000
     90      -3.5130      1.00000
     91      -3.4783      1.00000
     92      -3.4494      1.00000
     93      -3.2212      1.00000
     94      -3.1960      1.00000
     95      -3.1717      1.00000
     96      -3.1555      1.00000
     97      -3.1272      1.00000
     98      -3.1030      1.00000
     99      -3.0762      1.00000
    100      -3.0272      1.00000
    101      -2.9669      1.00000
    102      -2.9573      1.00000
    103      -2.9040      1.00000
    104      -2.8226      1.00000
    105      -2.5219      1.00000
    106      -2.5083      1.00000
    107      -2.4824      1.00000
    108      -2.4756      1.00000
    109      -2.1022      1.00000
    110      -2.0713      1.00000
    111      -1.9376      1.00000
    112      -1.9349      1.00000
    113      -1.9123      1.00000
    114      -1.9032      1.00000
    115      -1.7915      1.00000
    116      -1.7792      1.00000
    117      -1.1421      1.00000
    118      -1.1217      1.00000
    119      -1.1200      1.00000
    120      -1.0928      1.00000
    121       2.1656      0.00000
    122       2.1761      0.00000
    123       2.2043      0.00000
    124       2.2099      0.00000
    125       2.2453      0.00000
    126       2.2789      0.00000
    127       2.6892      0.00000
    128       2.6942      0.00000
    129       2.8722      0.00000
    130       2.9003      0.00000
    131       2.9204      0.00000
    132       2.9282      0.00000
    133       3.1581      0.00000
    134       3.2115      0.00000
    135       3.2815      0.00000
    136       3.3474      0.00000
    137       3.3975      0.00000
    138       3.4457      0.00000
    139       3.5802      0.00000
    140       3.5971      0.00000
    141       3.7350      0.00000
    142       3.7989      0.00000
    143       3.8192      0.00000
    144       3.8453      0.00000
    145       3.8998      0.00000
    146       3.9280      0.00000
    147       3.9418      0.00000
    148       3.9493      0.00000
    149       4.0459      0.00000
    150       4.3226      0.00000
    151       4.3691      0.00000
    152       4.5158      0.00000
    153       4.9882      0.00000
    154       5.0204      0.00000
    155       5.4533      0.00000
    156       5.6610      0.00000
    157       5.8964      0.00000
    158       6.3418      0.00000
    159       6.3442      0.00000
    160       6.5266      0.00000

 spin component 2

 k-point     1 :       0.2500    0.2500    0.2500
  band No.  band energies     occupation 
      1     -34.9522      1.00000
      2     -34.9519      1.00000
      3     -34.9496      1.00000
      4     -34.9494      1.00000
      5     -34.8706      1.00000
      6     -34.8704      1.00000
      7     -34.8682      1.00000
      8     -34.8680      1.00000
      9     -34.7736      1.00000
     10     -34.7692      1.00000
     11     -34.7691      1.00000
     12     -34.7640      1.00000
     13     -34.7545      1.00000
     14     -34.7474      1.00000
     15     -34.7472      1.00000
     16     -34.7446      1.00000
     17     -34.7050      1.00000
     18     -34.7014      1.00000
     19     -34.7014      1.00000
     20     -34.6943      1.00000
     21     -34.6866      1.00000
     22     -34.6814      1.00000
     23     -34.6812      1.00000
     24     -34.6765      1.00000
     25     -23.2631      1.00000
     26     -23.2354      1.00000
     27     -23.2245      1.00000
     28     -23.2225      1.00000
     29     -22.8871      1.00000
     30     -22.8860      1.00000
     31     -22.8772      1.00000
     32     -22.8702      1.00000
     33     -22.3600      1.00000
     34     -22.3501      1.00000
     35     -22.3482      1.00000
     36     -22.3282      1.00000
     37     -22.0867      1.00000
     38     -22.0648      1.00000
     39     -22.0647      1.00000
     40     -22.0447      1.00000
     41     -16.7404      1.00000
     42     -16.6868      1.00000
     43     -16.6866      1.00000
     44     -16.5952      1.00000
     45     -16.5576      1.00000
     46     -16.4665      1.00000
     47     -16.4648      1.00000
     48     -16.4318      1.00000
     49      -6.7487      1.00000
     50      -6.7258      1.00000
     51      -6.7219      1.00000
     52      -6.7110      1.00000
     53      -5.8951      1.00000
     54      -5.8541      1.00000
     55      -5.8524      1.00000
     56      -5.7778      1.00000
     57      -5.7741      1.00000
     58      -5.7673      1.00000
     59      -5.6708      1.00000
     60      -5.6613      1.00000
     61      -5.5645      1.00000
     62      -5.5616      1.00000
     63      -5.5040      1.00000
     64      -5.4606      1.00000
     65      -5.1918      1.00000
     66      -5.1576      1.00000
     67      -5.0923      1.00000
     68      -5.0864      1.00000
     69      -5.0507      1.00000
     70      -5.0135      1.00000
     71      -4.6274      1.00000
     72      -4.6187      1.00000
     73      -4.6042      1.00000
     74      -4.5531      1.00000
     75      -4.5003      1.00000
     76      -4.4664      1.00000
     77      -4.4423      1.00000
     78      -4.4326      1.00000
     79      -4.3766      1.00000
     80      -4.3471      1.00000
     81      -4.1664      1.00000
     82      -4.0966      1.00000
     83      -4.0431      1.00000
     84      -3.9595      1.00000
     85      -3.7962      1.00000
     86      -3.7795      1.00000
     87      -3.7121      1.00000
     88      -3.6276      1.00000
     89      -3.5778      1.00000
     90      -3.5130      1.00000
     91      -3.4783      1.00000
     92      -3.4494      1.00000
     93      -3.2212      1.00000
     94      -3.1960      1.00000
     95      -3.1717      1.00000
     96      -3.1555      1.00000
     97      -3.1272      1.00000
     98      -3.1030      1.00000
     99      -3.0762      1.00000
    100      -3.0272      1.00000
    101      -2.9669      1.00000
    102      -2.9573      1.00000
    103      -2.9040      1.00000
    104      -2.8226      1.00000
    105      -2.5219      1.00000
    106      -2.5083      1.00000
    107      -2.4824      1.00000
    108      -2.4756      1.00000
    109      -2.1022      1.00000
    110      -2.0713      1.00000
    111      -1.9376      1.00000
    112      -1.9349      1.00000
    113      -1.9123      1.00000
    114      -1.9032      1.00000
    115      -1.7915      1.00000
    116      -1.7792      1.00000
    117      -1.1421      1.00000
    118      -1.1217      1.00000
    119      -1.1200      1.00000
    120      -1.0928      1.00000
    121       2.1656      0.00000
    122       2.1761      0.00000
    123       2.2043      0.00000
    124       2.2099      0.00000
    125       2.2453      0.00000
    126       2.2789      0.00000
    127       2.6892      0.00000
    128       2.6942      0.00000
    129       2.8722      0.00000
    130       2.9003      0.00000
    131       2.9204      0.00000
    132       2.9282      0.00000
    133       3.1581      0.00000
    134       3.2115      0.00000
    135       3.2815      0.00000
    136       3.3474      0.00000
    137       3.3975      0.00000
    138       3.4457      0.00000
    139       3.5802      0.00000
    140       3.5971      0.00000
    141       3.7350      0.00000
    142       3.7989      0.00000
    143       3.8192      0.00000
    144       3.8453      0.00000
    145       3.8998      0.00000
    146       3.9280      0.00000
    147       3.9418      0.00000
    148       3.9493      0.00000
    149       4.0459      0.00000
    150       4.3226      0.00000
    151       4.3691      0.00000
    152       4.5158      0.00000
    153       4.9882      0.00000
    154       5.0204      0.00000
    155       5.4533      0.00000
    156       5.6610      0.00000
    157       5.8964      0.00000
    158       6.3418      0.00000
    159       6.3442      0.00000
    160       6.5266      0.00000

 k-point     2 :      -0.2500    0.2500    0.2500
  band No.  band energies     occupation 
      1     -34.9522      1.00000
      2     -34.9519      1.00000
      3     -34.9496      1.00000
      4     -34.9494      1.00000
      5     -34.8706      1.00000
      6     -34.8704      1.00000
      7     -34.8682      1.00000
      8     -34.8680      1.00000
      9     -34.7736      1.00000
     10     -34.7692      1.00000
     11     -34.7691      1.00000
     12     -34.7640      1.00000
     13     -34.7545      1.00000
     14     -34.7474      1.00000
     15     -34.7472      1.00000
     16     -34.7446      1.00000
     17     -34.7050      1.00000
     18     -34.7014      1.00000
     19     -34.7014      1.00000
     20     -34.6943      1.00000
     21     -34.6866      1.00000
     22     -34.6814      1.00000
     23     -34.6812      1.00000
     24     -34.6765      1.00000
     25     -23.2631      1.00000
     26     -23.2354      1.00000
     27     -23.2245      1.00000
     28     -23.2225      1.00000
     29     -22.8871      1.00000
     30     -22.8860      1.00000
     31     -22.8772      1.00000
     32     -22.8702      1.00000
     33     -22.3600      1.00000
     34     -22.3501      1.00000
     35     -22.3482      1.00000
     36     -22.3282      1.00000
     37     -22.0867      1.00000
     38     -22.0648      1.00000
     39     -22.0647      1.00000
     40     -22.0447      1.00000
     41     -16.7404      1.00000
     42     -16.6868      1.00000
     43     -16.6866      1.00000
     44     -16.5952      1.00000
     45     -16.5576      1.00000
     46     -16.4665      1.00000
     47     -16.4648      1.00000
     48     -16.4318      1.00000
     49      -6.7487      1.00000
     50      -6.7258      1.00000
     51      -6.7219      1.00000
     52      -6.7110      1.00000
     53      -5.8951      1.00000
     54      -5.8541      1.00000
     55      -5.8524      1.00000
     56      -5.7778      1.00000
     57      -5.7741      1.00000
     58      -5.7673      1.00000
     59      -5.6708      1.00000
     60      -5.6613      1.00000
     61      -5.5645      1.00000
     62      -5.5616      1.00000
     63      -5.5040      1.00000
     64      -5.4606      1.00000
     65      -5.1918      1.00000
     66      -5.1576      1.00000
     67      -5.0923      1.00000
     68      -5.0864      1.00000
     69      -5.0507      1.00000
     70      -5.0135      1.00000
     71      -4.6274      1.00000
     72      -4.6187      1.00000
     73      -4.6042      1.00000
     74      -4.5531      1.00000
     75      -4.5003      1.00000
     76      -4.4664      1.00000
     77      -4.4423      1.00000
     78      -4.4326      1.00000
     79      -4.3766      1.00000
     80      -4.3471      1.00000
     81      -4.1664      1.00000
     82      -4.0966      1.00000
     83      -4.0431      1.00000
     84      -3.9595      1.00000
     85      -3.7962      1.00000
     86      -3.7795      1.00000
     87      -3.7121      1.00000
     88      -3.6276      1.00000
     89      -3.5778      1.00000
     90      -3.5130      1.00000
     91      -3.4783      1.00000
     92      -3.4494      1.00000
     93      -3.2212      1.00000
     94      -3.1960      1.00000
     95      -3.1717      1.00000
     96      -3.1555      1.00000
     97      -3.1272      1.00000
     98      -3.1030      1.00000
     99      -3.0762      1.00000
    100      -3.0272      1.00000
    101      -2.9669      1.00000
    102      -2.9573      1.00000
    103      -2.9040      1.00000
    104      -2.8226      1.00000
    105      -2.5219      1.00000
    106      -2.5083      1.00000
    107      -2.4824      1.00000
    108      -2.4756      1.00000
    109      -2.1022      1.00000
    110      -2.0713      1.00000
    111      -1.9376      1.00000
    112      -1.9349      1.00000
    113      -1.9123      1.00000
    114      -1.9032      1.00000
    115      -1.7915      1.00000
    116      -1.7792      1.00000
    117      -1.1421      1.00000
    118      -1.1217      1.00000
    119      -1.1200      1.00000
    120      -1.0928      1.00000
    121       2.1656      0.00000
    122       2.1761      0.00000
    123       2.2043      0.00000
    124       2.2099      0.00000
    125       2.2453      0.00000
    126       2.2789      0.00000
    127       2.6892      0.00000
    128       2.6942      0.00000
    129       2.8721      0.00000
    130       2.9003      0.00000
    131       2.9204      0.00000
    132       2.9282      0.00000
    133       3.1581      0.00000
    134       3.2115      0.00000
    135       3.2815      0.00000
    136       3.3474      0.00000
    137       3.3975      0.00000
    138       3.4457      0.00000
    139       3.5802      0.00000
    140       3.5971      0.00000
    141       3.7350      0.00000
    142       3.7989      0.00000
    143       3.8192      0.00000
    144       3.8453      0.00000
    145       3.8998      0.00000
    146       3.9280      0.00000
    147       3.9418      0.00000
    148       3.9493      0.00000
    149       4.0459      0.00000
    150       4.3226      0.00000
    151       4.3691      0.00000
    152       4.5158      0.00000
    153       4.9882      0.00000
    154       5.0204      0.00000
    155       5.4533      0.00000
    156       5.6610      0.00000
    157       5.8964      0.00000
    158       6.3418      0.00000
    159       6.3442      0.00000
    160       6.5266      0.00000

 k-point     3 :       0.2500   -0.2500    0.2500
  band No.  band energies     occupation 
      1     -34.9522      1.00000
      2     -34.9519      1.00000
      3     -34.9496      1.00000
      4     -34.9494      1.00000
      5     -34.8706      1.00000
      6     -34.8704      1.00000
      7     -34.8682      1.00000
      8     -34.8680      1.00000
      9     -34.7736      1.00000
     10     -34.7692      1.00000
     11     -34.7691      1.00000
     12     -34.7640      1.00000
     13     -34.7545      1.00000
     14     -34.7474      1.00000
     15     -34.7472      1.00000
     16     -34.7446      1.00000
     17     -34.7050      1.00000
     18     -34.7014      1.00000
     19     -34.7014      1.00000
     20     -34.6943      1.00000
     21     -34.6866      1.00000
     22     -34.6814      1.00000
     23     -34.6812      1.00000
     24     -34.6765      1.00000
     25     -23.2631      1.00000
     26     -23.2354      1.00000
     27     -23.2245      1.00000
     28     -23.2225      1.00000
     29     -22.8871      1.00000
     30     -22.8860      1.00000
     31     -22.8772      1.00000
     32     -22.8702      1.00000
     33     -22.3600      1.00000
     34     -22.3501      1.00000
     35     -22.3482      1.00000
     36     -22.3282      1.00000
     37     -22.0867      1.00000
     38     -22.0648      1.00000
     39     -22.0647      1.00000
     40     -22.0447      1.00000
     41     -16.7404      1.00000
     42     -16.6868      1.00000
     43     -16.6866      1.00000
     44     -16.5952      1.00000
     45     -16.5576      1.00000
     46     -16.4665      1.00000
     47     -16.4648      1.00000
     48     -16.4318      1.00000
     49      -6.7487      1.00000
     50      -6.7258      1.00000
     51      -6.7219      1.00000
     52      -6.7110      1.00000
     53      -5.8951      1.00000
     54      -5.8541      1.00000
     55      -5.8524      1.00000
     56      -5.7778      1.00000
     57      -5.7741      1.00000
     58      -5.7673      1.00000
     59      -5.6708      1.00000
     60      -5.6613      1.00000
     61      -5.5645      1.00000
     62      -5.5616      1.00000
     63      -5.5040      1.00000
     64      -5.4606      1.00000
     65      -5.1918      1.00000
     66      -5.1576      1.00000
     67      -5.0923      1.00000
     68      -5.0864      1.00000
     69      -5.0507      1.00000
     70      -5.0135      1.00000
     71      -4.6274      1.00000
     72      -4.6187      1.00000
     73      -4.6042      1.00000
     74      -4.5531      1.00000
     75      -4.5003      1.00000
     76      -4.4664      1.00000
     77      -4.4423      1.00000
     78      -4.4326      1.00000
     79      -4.3766      1.00000
     80      -4.3471      1.00000
     81      -4.1664      1.00000
     82      -4.0966      1.00000
     83      -4.0431      1.00000
     84      -3.9595      1.00000
     85      -3.7962      1.00000
     86      -3.7795      1.00000
     87      -3.7121      1.00000
     88      -3.6276      1.00000
     89      -3.5778      1.00000
     90      -3.5130      1.00000
     91      -3.4783      1.00000
     92      -3.4494      1.00000
     93      -3.2212      1.00000
     94      -3.1960      1.00000
     95      -3.1717      1.00000
     96      -3.1555      1.00000
     97      -3.1272      1.00000
     98      -3.1030      1.00000
     99      -3.0762      1.00000
    100      -3.0272      1.00000
    101      -2.9669      1.00000
    102      -2.9573      1.00000
    103      -2.9040      1.00000
    104      -2.8226      1.00000
    105      -2.5219      1.00000
    106      -2.5083      1.00000
    107      -2.4824      1.00000
    108      -2.4756      1.00000
    109      -2.1022      1.00000
    110      -2.0713      1.00000
    111      -1.9376      1.00000
    112      -1.9349      1.00000
    113      -1.9123      1.00000
    114      -1.9032      1.00000
    115      -1.7915      1.00000
    116      -1.7792      1.00000
    117      -1.1421      1.00000
    118      -1.1217      1.00000
    119      -1.1200      1.00000
    120      -1.0928      1.00000
    121       2.1656      0.00000
    122       2.1761      0.00000
    123       2.2043      0.00000
    124       2.2099      0.00000
    125       2.2453      0.00000
    126       2.2789      0.00000
    127       2.6892      0.00000
    128       2.6942      0.00000
    129       2.8722      0.00000
    130       2.9003      0.00000
    131       2.9204      0.00000
    132       2.9282      0.00000
    133       3.1581      0.00000
    134       3.2115      0.00000
    135       3.2815      0.00000
    136       3.3474      0.00000
    137       3.3975      0.00000
    138       3.4457      0.00000
    139       3.5802      0.00000
    140       3.5971      0.00000
    141       3.7350      0.00000
    142       3.7989      0.00000
    143       3.8192      0.00000
    144       3.8453      0.00000
    145       3.8998      0.00000
    146       3.9280      0.00000
    147       3.9418      0.00000
    148       3.9493      0.00000
    149       4.0459      0.00000
    150       4.3226      0.00000
    151       4.3691      0.00000
    152       4.5158      0.00000
    153       4.9882      0.00000
    154       5.0204      0.00000
    155       5.4533      0.00000
    156       5.6610      0.00000
    157       5.8964      0.00000
    158       6.3418      0.00000
    159       6.3442      0.00000
    160       6.5266      0.00000

 k-point     4 :      -0.2500   -0.2500    0.2500
  band No.  band energies     occupation 
      1     -34.9522      1.00000
      2     -34.9519      1.00000
      3     -34.9496      1.00000
[...]
 -0.000  -0.000  -0.000  -0.000  -0.000  -0.000  -0.000  -0.000  -0.000   0.000  -0.000  -0.000  -0.000   0.000  -0.000   0.000
 -0.000  -0.000   0.000   0.000  -0.000  -0.000   0.000   0.000  -0.000  -0.000   0.000   0.000   0.000   0.000  -0.000  -0.000
  0.000  -0.000   0.000  -0.000  -0.000  -0.000  -0.000   0.000   0.000  -0.000   0.000   0.000   0.000  -0.000   0.000  -0.000
  0.000   0.000  -0.000  -0.000   0.000  -0.000   0.000  -0.000  -0.000  -0.000   0.000   0.000  -0.000   0.000   0.000  -0.000
 -0.000  -0.000   0.000   0.000   0.000  -0.000   0.000  -0.000  -0.000   0.000   0.000  -0.000   0.000   0.000  -0.000  -0.000
  0.000   0.000   0.000  -0.000   0.000  -0.000  -0.000  -0.000   0.000  -0.000  -0.000   0.000   0.000  -0.000   0.000  -0.000
  0.000   0.000   0.000  -0.000  -0.000  -0.000   0.000   0.000  -0.000   0.000  -0.000  -0.000  -0.000  -0.000  -0.000   0.000
 -0.000  -0.000   0.000  -0.000   0.000   0.000   0.000  -0.000  -0.000  -0.000  -0.000   0.000   0.000   0.000   0.000   0.000
 -0.000  -0.000   0.000  -0.000   0.000   0.000  -0.000  -0.000   0.000  -0.000  -0.000   0.000   0.000  -0.000  -0.000   0.000


------------------------ aborting loop because EDIFF is reached ----------------------------------------


 


 total charge     
 
# of ion       s       p       d       tot
------------------------------------------
    1        0.319   6.463   1.756   8.538
    2        0.319   6.463   1.756   8.538
    3        0.319   6.463   1.756   8.538
    4        0.319   6.463   1.756   8.538
    5        0.319   6.463   1.756   8.538
    6        0.319   6.463   1.756   8.538
    7        0.319   6.463   1.756   8.538
    8        0.319   6.463   1.756   8.538
    9        1.568   3.464   0.000   5.032
   10        1.568   3.464   0.000   5.032
   11        1.570   3.471   0.000   5.040
   12        1.570   3.471   0.000   5.040
   13        1.570   3.471   0.000   5.040
   14        1.570   3.471   0.000   5.040
   15        1.568   3.464   0.000   5.032
   16        1.568   3.464   0.000   5.032
   17        1.731   4.390   0.000   6.121
   18        1.731   4.390   0.000   6.121
   19        1.728   4.371   0.000   6.099
   20        1.728   4.371   0.000   6.099
   21        1.730   4.389   0.000   6.119
   22        1.730   4.389   0.000   6.119
   23        1.730   4.380   0.000   6.110
   24        1.730   4.380   0.000   6.110
   25        1.730   4.380   0.000   6.110
   26        1.730   4.380   0.000   6.110
   27        1.728   4.371   0.000   6.099
   28        1.731   4.390   0.000   6.121
   29        1.730   4.389   0.000   6.119
   30        1.728   4.371   0.000   6.099
   31        1.731   4.390   0.000   6.121
   32        1.730   4.389   0.000   6.119
--------------------------------------------------
tot         42.778 149.567  14.050 206.394
 


 magnetization (x)
 
# of ion       s       p       d       tot
------------------------------------------
    1       -0.000   0.000   0.000   0.000
    2        0.000  -0.000   0.000   0.000
    3       -0.000  -0.000  -0.000  -0.000
    4       -0.000   0.000   0.000   0.000
    5        0.000   0.000   0.000   0.000
    6        0.000  -0.000  -0.000  -0.000
    7        0.000  -0.000  -0.000  -0.000
    8       -0.000  -0.000  -0.000  -0.000
    9        0.000  -0.000   0.000  -0.000
   10        0.000   0.000   0.000   0.000
   11       -0.000  -0.000   0.000  -0.000
   12       -0.000   0.000   0.000   0.000
   13       -0.000   0.000   0.000   0.000
   14       -0.000  -0.000   0.000  -0.000
   15       -0.000  -0.000   0.000  -0.000
   16        0.000  -0.000   0.000  -0.000
   17        0.000  -0.000   0.000  -0.000
   18        0.000  -0.000   0.000   0.000
   19       -0.000  -0.000   0.000  -0.000
   20       -0.000  -0.000   0.000  -0.000
   21       -0.000  -0.000   0.000  -0.000
   22        0.000  -0.000   0.000  -0.000
   23       -0.000   0.000   0.000   0.000
   24        0.000   0.000   0.000   0.000
   25        0.000  -0.000   0.000  -0.000
   26       -0.000   0.000   0.000   0.000
   27        0.000  -0.000   0.000   0.000
   28       -0.000   0.000   0.000  -0.000
   29       -0.000   0.000   0.000   0.000
   30       -0.000   0.000   0.000   0.000
   31        0.000  -0.000   0.000   0.000
   32       -0.000   0.000   0.000   0.000
--------------------------------------------------
tot         -0.000  -0.000   0.000  -0.000
 
    CHARGE:  cpu time    0.3839: real time    0.3824
    FORLOC:  cpu time    0.0100: real time    0.0106
    FORNL :  cpu time    2.0957: real time    2.0857
    STRESS:  cpu time    6.4910: real time    6.4989
    FORCOR:  cpu time    0.1290: real time    0.1293
    FORHAR:  cpu time    0.0210: real time    0.0213
    MIXING:  cpu time    0.0220: real time    0.0221
    OFIELD:  cpu time    0.0000: real time    0.0000

  FORCE on cell =-STRESS in cart. coord.  units (eV):
  Direction    XX          YY          ZZ          XY          YZ          ZX
  --------------------------------------------------------------------------------------
  Alpha Z   763.70293   763.70293   763.70293
  Ewald   -4299.24261 -4246.49922 -4299.26109     0.00022    -0.00026     0.00001
  Hartree  2730.09384  2746.01442  2730.08593     0.00004    -0.00005     0.00001
  E(xc)   -1232.28337 -1232.53138 -1232.28337    -0.00000     0.00000     0.00000
  Local   -2106.62206 -2204.07607 -2106.59644    -0.00025     0.00030    -0.00002
  n-local  -968.54754  -962.80905  -968.54778     0.00001    -0.00001    -0.00000
  augment   753.97631   763.73648   753.97633     0.00000    -0.00000    -0.00000
  Kinetic  4359.01856  4372.49045  4359.01872    -0.00001     0.00001    -0.00000
  Fock        0.00000     0.00000     0.00000     0.00000     0.00000     0.00000
  -------------------------------------------------------------------------------------
  Total       0.09606     0.02857     0.09522     0.00001    -0.00001     0.00000
  in kB       0.33565     0.09982     0.33272     0.00003    -0.00004     0.00000
  external pressure =        0.26 kB  Pullay stress =        0.00 kB


 VOLUME and BASIS-vectors are now :
 -----------------------------------------------------------------------------
  energy-cutoff  :      700.00
  volume of cell :      458.51
      direct lattice vectors                 reciprocal lattice vectors
     7.743281801  0.000000008  0.000000022     0.129144209  0.000000000 -0.000000000
    -0.000000020  7.647147945 -0.000000001    -0.000000000  0.130767707  0.000000000
     0.000000018 -0.000000004  7.743282223    -0.000000000  0.000000000  0.129144202

  length of vectors
     7.743281801  7.647147945  7.743282223     0.129144209  0.130767707  0.129144202


 FORCES acting on ions
    electron-ion (+dipol)            ewald-force                    non-local-force                 convergence-correction
 -----------------------------------------------------------------------------------------------
   0.880E+01 0.379E+02 0.246E+02   -.874E+01 -.387E+02 -.255E+02   -.620E-01 0.802E+00 0.886E+00   0.158E-03 -.856E-04 -.775E-04
   0.880E+01 0.379E+02 -.246E+02   -.874E+01 -.387E+02 0.255E+02   -.620E-01 0.802E+00 -.886E+00   0.158E-03 -.840E-04 0.778E-04
   0.246E+02 -.379E+02 0.881E+01   -.255E+02 0.387E+02 -.874E+01   0.886E+00 -.802E+00 -.620E-01   -.290E-04 0.106E-03 0.123E-03
   0.246E+02 -.379E+02 -.881E+01   -.255E+02 0.387E+02 0.874E+01   0.886E+00 -.802E+00 0.620E-01   -.407E-04 0.115E-03 -.123E-03
   -.880E+01 0.379E+02 0.246E+02   0.874E+01 -.387E+02 -.255E+02   0.620E-01 0.802E+00 0.886E+00   -.160E-03 -.983E-04 -.914E-04
   -.880E+01 0.379E+02 -.246E+02   0.874E+01 -.387E+02 0.255E+02   0.620E-01 0.802E+00 -.886E+00   -.157E-03 -.814E-04 0.876E-04
   -.246E+02 -.379E+02 0.881E+01   0.255E+02 0.388E+02 -.874E+01   -.886E+00 -.802E+00 -.620E-01   0.392E-04 0.124E-03 0.121E-03
   -.246E+02 -.379E+02 -.881E+01   0.255E+02 0.387E+02 0.874E+01   -.886E+00 -.802E+00 0.620E-01   0.367E-04 0.104E-03 -.119E-03
   0.254E-02 0.125E+01 0.509E+01   -.273E-02 -.342E+01 -.522E+01   0.131E-03 0.217E+01 0.125E+00   0.416E-05 0.164E-04 0.591E-04
   -.479E-03 0.125E+01 -.509E+01   0.519E-03 -.342E+01 0.522E+01   -.880E-04 0.217E+01 -.125E+00   -.486E-05 0.147E-04 -.589E-04
   -.489E+01 0.122E-01 -.489E+01   0.622E+01 -.131E-01 0.622E+01   -.134E+01 0.338E-03 -.134E+01   0.790E-04 -.240E-04 0.617E-04
   -.489E+01 0.139E-01 0.489E+01   0.622E+01 -.150E-01 -.622E+01   -.134E+01 0.368E-03 0.134E+01   0.785E-04 -.161E-04 -.619E-04
   0.489E+01 0.168E-01 -.489E+01   -.622E+01 -.181E-01 0.622E+01   0.134E+01 0.428E-03 -.134E+01   -.795E-04 -.219E-04 0.606E-04
   0.489E+01 0.120E-01 0.489E+01   -.622E+01 -.129E-01 -.622E+01   0.134E+01 0.330E-03 0.134E+01   -.780E-04 -.216E-04 -.593E-04
   0.509E+01 -.125E+01 -.582E-03   -.522E+01 0.343E+01 0.625E-03   0.125E+00 -.217E+01 -.857E-04   0.725E-04 -.138E-04 -.453E-05
   -.509E+01 -.125E+01 0.276E-02   0.522E+01 0.343E+01 -.295E-02   -.125E+00 -.217E+01 0.128E-03   -.726E-04 -.138E-04 -.585E-05
   0.130E-02 0.736E+00 -.102E+02   -.134E-02 0.335E+01 0.144E+02   -.552E-05 -.409E+01 -.420E+01   -.137E-05 -.207E-04 -.664E-05
   -.857E-03 0.736E+00 0.102E+02   0.884E-03 0.335E+01 -.144E+02   0.567E-05 -.409E+01 0.420E+01   -.187E-05 -.202E-04 0.665E-05
   -.935E-03 -.921E+01 0.557E+01   0.910E-03 0.695E+01 -.566E+01   0.740E-04 0.227E+01 0.881E-01   -.759E-05 -.137E-04 0.692E-04
   0.320E-03 -.921E+01 -.557E+01   -.319E-03 0.695E+01 0.566E+01   -.166E-04 0.227E+01 -.881E-01   0.555E-05 -.140E-04 -.688E-04
   -.139E-02 -.600E+01 -.944E+01   0.144E-02 0.104E+02 0.135E+02   -.811E-05 -.437E+01 -.409E+01   0.125E-05 -.586E-04 0.122E-04
   0.883E-03 -.600E+01 0.944E+01   -.913E-03 0.104E+02 -.135E+02   -.248E-05 -.437E+01 0.409E+01   0.179E-05 -.564E-04 -.113E-04
   0.151E+01 -.231E-02 0.151E+01   -.877E-02 0.204E-02 -.832E-02   -.150E+01 0.413E-03 -.150E+01   0.681E-04 0.221E-04 0.490E-04
   0.151E+01 -.328E-02 -.151E+01   -.883E-02 0.301E-02 0.832E-02   -.150E+01 0.452E-03 0.150E+01   0.672E-04 0.128E-04 -.488E-04
   -.151E+01 -.428E-02 0.151E+01   0.893E-02 0.397E-02 -.818E-02   0.150E+01 0.535E-03 -.150E+01   -.680E-04 0.174E-04 0.474E-04
   -.151E+01 -.228E-02 -.151E+01   0.885E-02 0.201E-02 0.831E-02   0.150E+01 0.405E-03 0.150E+01   -.670E-04 0.198E-04 -.462E-04
   0.557E+01 0.920E+01 0.475E-03   -.566E+01 -.694E+01 -.485E-03   0.880E-01 -.227E+01 -.684E-05   0.846E-04 0.136E-04 0.463E-05
   -.102E+02 -.737E+00 -.650E-03   0.144E+02 -.335E+01 0.669E-03   -.420E+01 0.409E+01 0.873E-05   0.163E-04 0.200E-04 -.473E-05
   -.944E+01 0.600E+01 0.646E-03   0.135E+02 -.104E+02 -.668E-03   -.410E+01 0.437E+01 -.649E-05   0.346E-04 0.577E-04 0.452E-05
   -.557E+01 0.920E+01 -.128E-02   0.566E+01 -.694E+01 0.126E-02   -.880E-01 -.227E+01 0.643E-04   -.847E-04 0.148E-04 0.364E-05
   0.102E+02 -.737E+00 0.107E-02   -.144E+02 -.335E+01 -.109E-02   0.420E+01 0.409E+01 -.181E-04   -.143E-04 0.195E-04 0.716E-05
   0.944E+01 0.600E+01 -.104E-02   -.135E+02 -.104E+02 0.108E-02   0.410E+01 0.437E+01 0.547E-05   -.332E-04 0.604E-04 -.763E-05
 -----------------------------------------------------------------------------------------------
   -.136E-03 -.403E-02 -.123E-03   0.906E-13 -.266E-12 0.110E-13   0.129E-03 0.390E-02 0.123E-03   0.558E-05 0.947E-04 -.663E-06
 
 
 POSITION                                       TOTAL-FORCE (eV/Angst)
 -----------------------------------------------------------------------------------
      0.00261      7.56144      7.64587        -0.000573     -0.001145     -0.001792
      0.00261      7.56144      3.96905        -0.000583     -0.001118      0.001782
      7.64586      3.90928      0.00261        -0.001446      0.001546     -0.000644
      7.64587      3.90928      3.86903        -0.001488      0.001559      0.000645
      3.86903      7.56144      7.64587         0.000574     -0.001066     -0.001754
      3.86903      7.56144      3.96905         0.000582     -0.001138      0.001830
      3.96906      3.90928      0.00261         0.001513      0.001594     -0.000652
      3.96906      3.90928      3.86903         0.001480      0.001531      0.000651
      5.80746      3.80407      7.73804        -0.000055     -0.000523     -0.000683
      5.80746      3.80407      3.87688        -0.000053     -0.000524      0.000683
      0.01536      5.73537      0.01536        -0.004157     -0.000622     -0.004119
      0.01536      5.73538      3.85628        -0.004161     -0.000717      0.004116
      3.85628      5.73538      0.01536         0.004166     -0.000873     -0.004111
      3.85628      5.73537      3.85628         0.004158     -0.000612      0.004120
      7.73804      0.01950      5.80746        -0.000694      0.000538     -0.000048
      3.87688      0.01950      5.80746         0.000693      0.000538     -0.000068
      1.93582      0.07228      0.06389        -0.000046     -0.001120      0.004085
      1.93582      0.07228      3.80775         0.000031     -0.001120     -0.004082
      1.93582      3.78136      7.73780         0.000041      0.008111     -0.001761
      1.93582      3.78136      3.87713        -0.000010      0.008110      0.001761
      5.80746      0.08454      0.06292         0.000048      0.009537      0.002745
      5.80746      0.08454      3.80872        -0.000031      0.009530     -0.002741
      0.02844      1.91178      0.02844         0.001689      0.000166      0.001731
      0.02845      1.91178      3.84320         0.001689      0.000200     -0.001732
      3.84320      1.91178      0.02844        -0.001685      0.000246      0.001736
      3.84320      1.91178      3.84320        -0.001690      0.000163     -0.001732
      7.73780      0.04223      1.93582        -0.001772     -0.008100     -0.000012
      0.06390      3.75129      1.93582         0.004032      0.001135      0.000024
      0.06293      3.73901      5.80746         0.002680     -0.009433     -0.000024
      3.87713      0.04223      1.93582         0.001772     -0.008101      0.000048
      3.80774      3.75129      1.93582        -0.004029      0.001135     -0.000039
      3.80871      3.73901      5.80746        -0.002677     -0.009427      0.000039
 -----------------------------------------------------------------------------------
    total drift:                               -0.000001     -0.000032     -0.000000


--------------------------------------------------------------------------------------------------------



  FREE ENERGIE OF THE ION-ELECTRON SYSTEM (eV)
  ---------------------------------------------------
  free  energy   TOTEN  =      -213.58204938 eV

  energy  without entropy=     -213.58204938  energy(sigma->0) =     -213.58204938
 


--------------------------------------------------------------------------------------------------------


    POTLOK:  cpu time    0.9769: real time    0.9761


--------------------------------------------------------------------------------------------------------


 stress matrix after NEB project (eV)
      0.09606      0.00001      0.00000
      0.00001      0.02857     -0.00001
      0.00000     -0.00001      0.09522
  FORCES: max atom, RMS     0.009925    0.005420
  FORCE total and by dimension    0.030663    0.009537
  Stress total and by dimension    0.138237    0.096057
 Quasi-Newton relaxation of ions (Broydens 2nd method)
  g(Force)  = 0.454E-04   g(Stress)= 0.288E-04

 Reset! Starting new Quasi-Newton update for ions 


--------------------------------------------------------------------------------------------------------


  
 reached required accuracy - stopping structural energy minimisation
 writing wavefunctions
     LOOP+:  cpu time   41.4817: real time   45.1396
    4ORBIT:  cpu time    0.0000: real time    0.0000
 


 total charge     
 
# of ion       s       p       d       tot
------------------------------------------
    1        0.319   6.463   1.756   8.538
    2        0.319   6.463   1.756   8.538
    3        0.319   6.463   1.756   8.538
    4        0.319   6.463   1.756   8.538
    5        0.319   6.463   1.756   8.538
    6        0.319   6.463   1.756   8.538
    7        0.319   6.463   1.756   8.538
    8        0.319   6.463   1.756   8.538
    9        1.568   3.464   0.000   5.032
   10        1.568   3.464   0.000   5.032
   11        1.570   3.471   0.000   5.040
   12        1.570   3.471   0.000   5.040
   13        1.570   3.471   0.000   5.040
   14        1.570   3.471   0.000   5.040
   15        1.568   3.464   0.000   5.032
   16        1.568   3.464   0.000   5.032
   17        1.731   4.390   0.000   6.121
   18        1.731   4.390   0.000   6.121
   19        1.728   4.371   0.000   6.099
   20        1.728   4.371   0.000   6.099
   21        1.730   4.389   0.000   6.119
   22        1.730   4.389   0.000   6.119
   23        1.730   4.380   0.000   6.110
   24        1.730   4.380   0.000   6.110
   25        1.730   4.380   0.000   6.110
   26        1.730   4.380   0.000   6.110
   27        1.728   4.371   0.000   6.099
   28        1.731   4.390   0.000   6.121
   29        1.730   4.389   0.000   6.119
   30        1.728   4.371   0.000   6.099
   31        1.731   4.390   0.000   6.121
   32        1.730   4.389   0.000   6.119
--------------------------------------------------
tot         42.778 149.567  14.050 206.394
 


 magnetization (x)
 
# of ion       s       p       d       tot
------------------------------------------
    1       -0.000   0.000   0.000   0.000
    2        0.000  -0.000   0.000   0.000
    3       -0.000  -0.000  -0.000  -0.000
    4       -0.000   0.000   0.000   0.000
    5        0.000   0.000   0.000   0.000
    6        0.000  -0.000  -0.000  -0.000
    7        0.000  -0.000  -0.000  -0.000
    8       -0.000  -0.000  -0.000  -0.000
    9        0.000  -0.000   0.000  -0.000
   10        0.000   0.000   0.000   0.000
   11       -0.000  -0.000   0.000  -0.000
   12       -0.000   0.000   0.000   0.000
   13       -0.000   0.000   0.000   0.000
   14       -0.000  -0.000   0.000  -0.000
   15       -0.000  -0.000   0.000  -0.000
   16        0.000  -0.000   0.000  -0.000
   17        0.000  -0.000   0.000  -0.000
   18        0.000  -0.000   0.000   0.000
   19       -0.000  -0.000   0.000  -0.000
   20       -0.000  -0.000   0.000  -0.000
   21       -0.000  -0.000   0.000  -0.000
   22        0.000  -0.000   0.000  -0.000
   23       -0.000   0.000   0.000   0.000
   24        0.000   0.000   0.000   0.000
   25        0.000  -0.000   0.000  -0.000
   26       -0.000   0.000   0.000   0.000
   27        0.000  -0.000   0.000   0.000
   28       -0.000   0.000   0.000  -0.000
   29       -0.000   0.000   0.000   0.000
   30       -0.000   0.000   0.000   0.000
   31        0.000  -0.000   0.000   0.000
   32       -0.000   0.000   0.000   0.000
--------------------------------------------------
tot         -0.000  -0.000   0.000  -0.000
 

 total amount of memory used by VASP MPI-rank0    62256. kBytes
=======================================================================

   base      :      30000. kBytes
   nonlr-proj:       8640. kBytes
   fftplans  :       8422. kBytes
   grid      :       8783. kBytes
   one-center:        124. kBytes
   wavefun   :       6287. kBytes
 
  
  
 General timing and accounting informations for this job:
 ========================================================
  
                  Total CPU time used (sec):       58.902
                            User time (sec):       54.626
                          System time (sec):        4.276
                         Elapsed time (sec):       70.735
  
                   Maximum memory used (kb):      177196.
                   Average memory used (kb):           0.
  
                          Minor page faults:       103817
                          Major page faults:           21
                 Voluntary context switches:        18534
