 vasp.5.4.4.18Apr17-6-g9f103f2a35 (build Jul 16 2019 12:12:28) complex          
  
 executed on             LinuxIFC date 2020.01.06  10:23:35
 running on   96 total cores
 distrk:  each k-point on   96 cores,    1 groups
 distr:  one band on NCORES_PER_BAND=   8 cores,   12 groups


--------------------------------------------------------------------------------------------------------


 INCAR:
 POTCAR:    PAW_PBE Li_sv 10Sep2004               
 POTCAR:    PAW_PBE Ti_pv 07Sep2000               
 POTCAR:    PAW_PBE O 08Apr2002                   
 POTCAR:    PAW_PBE F 08Apr2002                   
 POTCAR:    PAW_PBE Li_sv 10Sep2004               
   VRHFIN =Li: 1s2s2p                                                           
   LEXCH  = PE                                                                  
   EATOM  =   202.7858 eV,   14.9043 Ry                                         
                                                                                
   TITEL  = PAW_PBE Li_sv 10Sep2004                                             
   LULTRA =        F    use ultrasoft PP ?                                      
   IUNSCR =        0    unscreen: 0-lin 1-nonlin 2-no                           
   RPACOR =    0.000    partial core radius                                     
   POMASS =    7.010; ZVAL   =    3.000    mass and valenz                      
   RCORE  =    1.700    outmost cutoff radius                                   
   RWIGS  =    2.050; RWIGS  =    1.085    wigner-seitz radius (au A)           
   ENMAX  =  499.034; ENMIN  =  374.276 eV                                      
   ICORE  =        2    local potential                                         
   LCOR   =        T    correct aug charges                                     
   LPAW   =        T    paw PP                                                  
   EAUG   =  628.945                                                            
   RMAX   =    1.732    core radius for proj-oper                               
   RAUG   =    1.300    factor for augmentation sphere                          
   RDEP   =    1.728    radius for radial grids                                 
   RDEPT  =    1.329    core radius for aug-charge                              
                                                                                
   Atomic configuration                                                         
    4 entries                                                                   
     n  l   j            E        occ.                                          
     1  0  0.50       -51.8549   2.0000                                         
     2  0  0.50        -2.8742   1.0000                                         
     2  1  0.50        -1.3606   0.0000                                         
     3  2  1.50        -1.3606   0.0000                                         
   Description                                                                  
     l       E           TYP  RCUT    TYP  RCUT                                 
     0    -51.8548813     23  1.400                                             
     0     -2.8742052     23  1.700                                             
     1     -1.3605826     23  1.400                                             
     2     -1.3605826     23  1.400                                             
  local pseudopotential read in
  atomic valenz-charges read in
  non local Contribution for L=           0  read in
    real space projection operators read in
  non local Contribution for L=           0  read in
    real space projection operators read in
  non local Contribution for L=           1  read in
    real space projection operators read in
    PAW grid and wavefunctions read in
 
   number of l-projection  operators is LMAX  =           3
   number of lm-projection operators is LMMAX =           5
 
 POTCAR:    PAW_PBE Ti_pv 07Sep2000               
   VRHFIN =Ti: d3 s1                                                            
   LEXCH  = PE                                                                  
   EATOM  =  1042.5995 eV,   76.6289 Ry                                         
                                                                                
   TITEL  = PAW_PBE Ti_pv 07Sep2000                                             
   LULTRA =        F    use ultrasoft PP ?                                      
   IUNSCR =        1    unscreen: 0-lin 1-nonlin 2-no                           
   RPACOR =    2.200    partial core radius                                     
   POMASS =   47.880; ZVAL   =   10.000    mass and valenz                      
   RCORE  =    2.500    outmost cutoff radius                                   
   RWIGS  =    2.500; RWIGS  =    1.323    wigner-seitz radius (au A)           
   ENMAX  =  222.335; ENMIN  =  166.751 eV                                      
   RCLOC  =    1.701    cutoff for local pot                                    
   LCOR   =        T    correct aug charges                                     
   LPAW   =        T    paw PP                                                  
   EAUG   =  482.848                                                            
   DEXC   =    0.000                                                            
   RMAX   =    2.564    core radius for proj-oper                               
   RAUG   =    1.300    factor for augmentation sphere                          
   RDEP   =    2.538    radius for radial grids                                 
   RDEPT  =    1.952    core radius for aug-charge                              
                                                                                
   Atomic configuration                                                         
    8 entries                                                                   
     n  l   j            E        occ.                                          
     1  0  0.50     -4865.3608   2.0000                                         
     2  0  0.50      -533.1368   2.0000                                         
     2  1  1.50      -440.5031   6.0000                                         
     3  0  0.50       -59.3186   2.0000                                         
     3  1  1.50       -35.7012   6.0000                                         
     3  2  2.50        -1.9157   3.0000                                         
     4  0  0.50        -3.7291   1.0000                                         
     4  3  2.50        -1.3606   0.0000                                         
   Description                                                                  
     l       E           TYP  RCUT    TYP  RCUT                                 
     1    -35.7012140     23  2.300                                             
     1     -1.3605826     23  2.300                                             
     2     -1.9156996     23  2.500                                             
     2     -0.4063033     23  2.500                                             
     0     -3.7290856     23  2.500                                             
     0     20.4087390     23  2.500                                             
  local pseudopotential read in
  partial core-charges read in
  partial kinetic energy density read in
  atomic valenz-charges read in
  non local Contribution for L=           1  read in
    real space projection operators read in
  non local Contribution for L=           1  read in
    real space projection operators read in
  non local Contribution for L=           2  read in
    real space projection operators read in
  non local Contribution for L=           2  read in
    real space projection operators read in
  non local Contribution for L=           0  read in
    real space projection operators read in
  non local Contribution for L=           0  read in
    real space projection operators read in
    PAW grid and wavefunctions read in
 
   number of l-projection  operators is LMAX  =           6
   number of lm-projection operators is LMMAX =          18
 
 POTCAR:    PAW_PBE O 08Apr2002                   
   VRHFIN =O: s2p4                                                              
   LEXCH  = PE                                                                  
   EATOM  =   432.3788 eV,   31.7789 Ry                                         
                                                                                
   TITEL  = PAW_PBE O 08Apr2002                                                 
   LULTRA =        F    use ultrasoft PP ?                                      
   IUNSCR =        1    unscreen: 0-lin 1-nonlin 2-no                           
   RPACOR =    1.200    partial core radius                                     
   POMASS =   16.000; ZVAL   =    6.000    mass and valenz                      
   RCORE  =    1.520    outmost cutoff radius                                   
   RWIGS  =    1.550; RWIGS  =    0.820    wigner-seitz radius (au A)           
   ENMAX  =  400.000; ENMIN  =  300.000 eV                                      
   ICORE  =        2    local potential                                         
   LCOR   =        T    correct aug charges                                     
   LPAW   =        T    paw PP                                                  
   EAUG   =  605.392                                                            
   DEXC   =    0.000                                                            
   RMAX   =    1.553    core radius for proj-oper                               
   RAUG   =    1.300    factor for augmentation sphere                          
   RDEP   =    1.550    radius for radial grids                                 
   RDEPT  =    1.329    core radius for aug-charge                              
                                                                                
   Atomic configuration                                                         
    4 entries                                                                   
     n  l   j            E        occ.                                          
     1  0  0.50      -514.6923   2.0000                                         
     2  0  0.50       -23.9615   2.0000                                         
     2  1  0.50        -9.0305   4.0000                                         
     3  2  1.50        -9.5241   0.0000                                         
   Description                                                                  
     l       E           TYP  RCUT    TYP  RCUT                                 
     0    -23.9615318     23  1.200                                             
     0     -9.5240782     23  1.200                                             
     1     -9.0304911     23  1.520                                             
     1      8.1634956     23  1.520                                             
     2     -9.5240782      7  1.500                                             
  local pseudopotential read in
  partial core-charges read in
  partial kinetic energy density read in
  kinetic energy density of atom read in
  atomic valenz-charges read in
  non local Contribution for L=           0  read in
    real space projection operators read in
  non local Contribution for L=           0  read in
    real space projection operators read in
  non local Contribution for L=           1  read in
    real space projection operators read in
  non local Contribution for L=           1  read in
    real space projection operators read in
    PAW grid and wavefunctions read in
 
   number of l-projection  operators is LMAX  =           4
   number of lm-projection operators is LMMAX =           8
 
 POTCAR:    PAW_PBE F 08Apr2002                   
   VRHFIN =F: s2p5                                                              
   LEXCH  = PE                                                                  
   EATOM  =   659.6475 eV,   48.4827 Ry                                         
                                                                                
   TITEL  = PAW_PBE F 08Apr2002                                                 
   LULTRA =        F    use ultrasoft PP ?                                      
   IUNSCR =        1    unscreen: 0-lin 1-nonlin 2-no                           
   RPACOR =    1.200    partial core radius                                     
   POMASS =   18.998; ZVAL   =    7.000    mass and valenz                      
   RCORE  =    1.520    outmost cutoff radius                                   
   RWIGS  =    1.500; RWIGS  =    0.794    wigner-seitz radius (au A)           
   ENMAX  =  400.000; ENMIN  =  300.000 eV                                      
   ICORE  =        2    local potential                                         
   LCOR   =        T    correct aug charges                                     
   LPAW   =        T    paw PP                                                  
   EAUG   =  613.614                                                            
   RMAX   =    1.555    core radius for proj-oper                               
   RAUG   =    1.300    factor for augmentation sphere                          
   RDEP   =    1.539    radius for radial grids                                 
   RDEPT  =    1.299    core radius for aug-charge                              
                                                                                
   Atomic configuration                                                         
    4 entries                                                                   
     n  l   j            E        occ.                                          
     1  0  0.50      -663.3661   2.0000                                         
     2  0  0.50       -29.8995   2.0000                                         
     2  1  0.50       -11.1114   5.0000                                         
     3  2  1.50       -10.8847   0.0000                                         
   Description                                                                  
     l       E           TYP  RCUT    TYP  RCUT                                 
     0    -29.8995018     23  1.200                                             
     0     -9.5240782     23  1.200                                             
     1    -11.1113914     23  1.520                                             
     1      1.3605826     23  1.520                                             
     2    -10.8846608      7  1.500                                             
  local pseudopotential read in
  partial core-charges read in
  partial kinetic energy density read in
  atomic valenz-charges read in
  non local Contribution for L=           0  read in
    real space projection operators read in
  non local Contribution for L=           0  read in
    real space projection operators read in
  non local Contribution for L=           1  read in
    real space projection operators read in
  non local Contribution for L=           1  read in
    real space projection operators read in
    PAW grid and wavefunctions read in
 
   number of l-projection  operators is LMAX  =           4
   number of lm-projection operators is LMMAX =           8
 
 Optimization of the real space projectors (new method)

 maximal supplied QI-value         = 22.11
 optimisation between [QCUT,QGAM] = [ 11.28, 22.77] = [ 35.61,145.23] Ry 
 Optimized for a Real-space Cutoff    1.31 Angstroem

   l    n(q)    QCUT    max X(q) W(low)/X(q) W(high)/X(q)  e(spline) 
   0      9    11.276    10.506    0.19E-04    0.17E-04    0.32E-07
   0      9    11.276     8.367    0.38E-04    0.40E-04    0.65E-07
   1      8    11.276     8.983    0.55E-04    0.98E-04    0.20E-06
 Optimization of the real space projectors (new method)

 maximal supplied QI-value         = 15.12
 optimisation between [QCUT,QGAM] = [ 11.34, 22.83] = [ 36.00,145.93] Ry 
 Optimized for a Real-space Cutoff    1.56 Angstroem

   l    n(q)    QCUT    max X(q) W(low)/X(q) W(high)/X(q)  e(spline) 
   1     10    11.338     4.216    0.27E-04    0.12E-04    0.66E-07
   1     10    11.338     5.422    0.81E-04    0.24E-04    0.19E-06
   2     10    11.338    72.084    0.64E-04    0.21E-03    0.51E-06
   2     10    11.338    65.965    0.63E-04    0.21E-03    0.50E-06
   0     11    11.338    41.531    0.33E-04    0.54E-04    0.13E-06
   0     11    11.338    16.290    0.26E-04    0.41E-04    0.11E-06
 Optimization of the real space projectors (new method)

 maximal supplied QI-value         = 24.76
 optimisation between [QCUT,QGAM] = [ 11.39, 22.77] = [ 36.31,145.25] Ry 
 Optimized for a Real-space Cutoff    1.20 Angstroem

   l    n(q)    QCUT    max X(q) W(low)/X(q) W(high)/X(q)  e(spline) 
   0      8    11.387    20.381    0.89E-04    0.31E-03    0.27E-06
   0      8    11.387    15.268    0.93E-04    0.32E-03    0.29E-06
   1      8    11.387     5.964    0.53E-04    0.28E-03    0.29E-06
   1      8    11.387     5.382    0.37E-04    0.22E-03    0.26E-06
 Optimization of the real space projectors (new method)

 maximal supplied QI-value         = 24.76
 optimisation between [QCUT,QGAM] = [ 11.39, 22.77] = [ 36.31,145.25] Ry 
 Optimized for a Real-space Cutoff    1.20 Angstroem

   l    n(q)    QCUT    max X(q) W(low)/X(q) W(high)/X(q)  e(spline) 
   0      8    11.387    14.049    0.69E-04    0.23E-03    0.18E-06
   0      8    11.387     8.945    0.88E-04    0.30E-03    0.26E-06
   1      8    11.387     7.086    0.62E-04    0.27E-03    0.27E-06
   1      8    11.387     6.747    0.46E-04    0.23E-03    0.25E-06

 ----------------------------------------------------------------------------- 
|                                                                             |
|  ADVICE TO THIS USER RUNNING 'VASP/VAMP'   (HEAR YOUR MASTER'S VOICE ...):  |
|                                                                             |
|      You enforced a specific xc-type in the INCAR file,                     |
|      a different type was found on the POTCAR file                          |
|          I HOPE YOU KNOW, WHAT YOU ARE  DOING                               |
|                                                                             |
 ----------------------------------------------------------------------------- 

  PAW_PBE Li_sv 10Sep2004               :
 energy of atom  1       EATOM= -202.7858
 kinetic energy error for atom=    0.0143 (will be added to EATOM!!)
  PAW_PBE Ti_pv 07Sep2000               :
 energy of atom  2       EATOM=-1042.5995
 kinetic energy error for atom=    0.0024 (will be added to EATOM!!)
  PAW_PBE O 08Apr2002                   :
 energy of atom  3       EATOM= -432.3788
 kinetic energy error for atom=    0.0224 (will be added to EATOM!!)
  PAW_PBE F 08Apr2002                   :
 energy of atom  4       EATOM= -659.6475
 kinetic energy error for atom=    0.0354 (will be added to EATOM!!)
 
 
 POSCAR: config 24                               
  positions in direct lattice
  velocities in cartesian coordinates
 exchange correlation table for  LEXCH =       14
   RHO(1)=    0.500       N(1)  =     2000
   RHO(2)=  100.500       N(2)  =     4000

 VTST: version 3.2, (02/03/18)

 CHAIN: initializing optimizer
 
 OPT: Using VASP QUASI-newton optimizer
 CHAIN: Read ICHAIN            0
 
 POSCAR: config 24                               
  positions in direct lattice
  velocities in cartesian coordinates
 


--------------------------------------------------------------------------------------------------------


 ion  position               nearest neighbor table
   1  0.374  0.410  0.903- 192 1.97 159 2.04  70 2.04   8 2.86
   2  0.996  0.995  0.994- 118 1.87  68 1.88 103 1.90 171 2.03 130 2.04 212 2.05
   3  0.999  0.991  0.494- 119 1.82  67 1.83 172 1.95 193 1.96 131 2.01 213 2.10
   4  0.005  0.496  0.996- 117 1.85  89 1.86 138 1.93 132 1.99 214 2.01 194 2.02
   5  0.994  0.504  0.508-  66 1.83 104 1.84 215 1.93 223 2.01 173 2.03 137 2.04
   6  0.495  0.994  0.000- 101 1.83 121 1.86 140 1.96 133 1.97 174 2.02 216 2.05
   7  0.502  0.005  0.498- 112 1.91 191 2.01 134 2.01 139 2.02 175 2.03 225 2.04
   8  0.508  0.497  0.997-  90 1.84 120 1.90  70 1.93 135 2.00 217 2.02 192 2.13   1 2.86
   9  0.491  0.497  0.496- 102 1.82  69 1.87 224 1.94 218 2.02 136 2.03 176 2.08
  10  0.007  0.004  0.256-  91 1.83  67 1.86 219 1.96 227 1.97 130 2.01 197 2.05
  11  0.003  0.007  0.757-  68 1.79 113 1.84 177 1.95 198 1.98 228 2.05 131 2.06
  12  0.994  0.493  0.251- 107 1.84 122 1.86 137 1.93 132 1.98 220 2.01 178 2.03
  13  0.993  0.499  0.741- 108 1.82  66 1.82 226 1.93 221 1.96 138 2.04 179 2.08
  14  0.506  0.008  0.251-  92 1.84 114 1.84 139 1.91 133 1.96 195 2.02 231 2.08
  15  0.493  0.005  0.753- 105 1.81 115 1.85 134 1.92 140 1.96 232 2.03 180 2.05
  16  0.492  0.495  0.258-  69 1.82 106 1.85 229 1.96 222 2.01 181 2.04 135 2.07
  17  0.501  0.504  0.759- 116 1.85  70 1.85 182 1.94 196 1.99 230 2.04 136 2.06
  18  0.995  0.258  0.001- 117 1.83 110 1.86 141 1.96 146 1.96 212 2.01 183 2.02
  19  0.999  0.248  0.491-  74 1.78 213 1.92 202 1.92 184 1.94 223 1.96 142 2.01
  20  0.998  0.758  0.006- 118 1.81  71 1.85 203 1.95 185 1.99 148 2.04 214 2.07
  21  0.996  0.757  0.506- 119 1.83  72 1.84 204 1.95 186 1.98 147 2.02 215 2.04
  22  0.496  0.259  0.002- 120 1.81 109 1.86 150 1.97 143 1.97 187 2.02 216 2.06
  23  0.510  0.241  0.498- 112 1.78  93 1.85 144 1.95 149 1.97 199 2.03 224 2.07
  24  0.508  0.757  0.000-  94 1.83 121 1.83 152 1.94 145 1.98 200 2.03 217 2.06
  25  0.507  0.751  0.509-  73 1.81  95 1.84 225 1.95 218 1.97 201 2.03 151 2.08
  26  1.000  0.259  0.255- 122 1.80  74 1.87 209 1.95 188 1.97 141 2.00 219 2.03
  27  0.007  0.243  0.747- 113 1.80  96 1.84 142 1.96 146 1.97 210 2.04 226 2.05
  28  0.006  0.748  0.243-  71 1.82  97 1.83 220 1.96 227 1.98 147 2.05 211 2.06
  29  0.993  0.750  0.743- 111 1.83  72 1.84 228 1.93 221 1.98 189 2.03 148 2.03
  30  0.507  0.240  0.253- 114 1.82  98 1.83 149 1.95 143 1.95 205 2.03 229 2.05
  31  0.508  0.242  0.749- 115 1.83  99 1.84 150 1.96 144 1.96 206 2.03 230 2.05
  32  0.506  0.751  0.251- 100 1.79 151 1.93 231 1.93 145 1.95 222 1.96 207 2.01
  33  0.502  0.741  0.744-  73 1.83 116 1.83 190 1.93 208 1.97 152 2.04 232 2.04
  34  0.257  0.998  0.005-  75 1.84 101 1.86 246 1.94 233 1.98 171 2.02 157 2.04
  35  0.253  0.994  0.506- 128 1.85  76 1.85 191 1.92 172 1.98 156 2.04 234 2.04
  36  0.241  0.510  0.999- 123 1.80  89 1.82 153 1.95 159 2.00 245 2.06 192 2.07
  37  0.255  0.495  0.507-  77 1.87 102 1.88 127 1.88 158 2.04 235 2.04 173 2.06
  38  0.757  0.000  0.994- 103 1.80  81 1.87 236 1.97 249 1.97 154 2.03 174 2.07
  39  0.748  0.009  0.495- 124 1.83  80 1.85 175 1.93 193 1.97 155 2.01 250 2.08
  40  0.743  0.501  0.005-  90 1.83  78 1.86 237 1.95 247 1.96 194 2.03 161 2.03
  41  0.756  0.498  0.506-  79 1.85 104 1.86 248 1.96 238 1.99 176 2.02 160 2.04
  42  0.245  0.003  0.243-  75 1.84  91 1.85 239 1.94 252 1.97 156 2.03 195 2.05
  43  0.259  0.997  0.744- 105 1.83  76 1.84 253 1.93 240 1.98 177 2.03 157 2.04
  44  0.255  0.492  0.252- 106 1.83 129 1.84 158 1.93 153 1.99 241 2.03 178 2.05
  45  0.245  0.506  0.740-  77 1.78 125 1.83 179 1.95 196 1.99 251 2.03 159 2.14
  46  0.744  0.002  0.256-  80 1.84  92 1.85 256 1.96 242 1.97 197 2.01 154 2.02
  47  0.747  0.007  0.756-  81 1.82 126 1.84 180 1.94 198 1.97 257 2.05 155 2.05
  48  0.755  0.498  0.242-  78 1.83 107 1.85 243 1.95 254 1.96 181 2.03 160 2.05
  49  0.758  0.498  0.742- 108 1.83  79 1.83 255 1.93 244 1.98 161 2.05 182 2.06
  50  0.256  0.251  0.006-  82 1.84 109 1.85 233 1.96 245 1.96 183 2.03 168 2.03
  51  0.254  0.257  0.505- 127 1.81  83 1.85 199 1.95 184 2.02 167 2.03 234 2.06
  52  0.252  0.744  0.994-  86 1.83 123 1.84 200 1.94 185 1.97 162 2.02 246 2.02
  53  0.253  0.756  0.493-  85 1.84 128 1.85 201 1.96 186 1.99 235 2.03 163 2.04
  54  0.757  0.252  0.008- 110 1.81  84 1.85 236 1.94 247 1.96 170 2.04 187 2.04
  55  0.741  0.244  0.498-  93 1.81 124 1.83 169 1.95 164 1.97 248 2.05 202 2.08
  56  0.741  0.749  0.994-  94 1.83  88 1.83 249 1.95 237 1.96 203 2.03 165 2.03
  57  0.742  0.753  0.494-  95 1.82  87 1.86 250 1.94 238 1.98 166 2.01 204 2.05
  58  0.251  0.258  0.244- 129 1.82  82 1.84 205 1.96 188 1.99 167 2.02 239 2.04
  59  0.244  0.251  0.743-  83 1.83  96 1.84 251 1.96 240 1.97 168 2.04 206 2.05
  60  0.243  0.748  0.256-  97 1.83  85 1.83 241 1.95 252 1.98 162 2.04 207 2.06
  61  0.248  0.741  0.757- 125 1.82  86 1.84 189 1.93 208 1.97 163 2.03 253 2.03
  62  0.742  0.251  0.242-  84 1.81  98 1.82 242 1.95 254 1.95 169 2.05 209 2.06
  63  0.745  0.242  0.750- 126 1.82  99 1.84 170 1.95 164 1.99 210 2.02 255 2.06
  64  0.745  0.750  0.257-  87 1.81 100 1.90 256 1.95 243 1.95 211 1.98 165 2.03
  65  0.758  0.749  0.757- 111 1.82  88 1.84 257 1.93 244 1.98 190 2.03 166 2.05
  66  0.015  0.503  0.625-  13 1.82   5 1.83
  67  0.001  0.005  0.376-   3 1.83  10 1.86
  68  0.006  0.001  0.873-  11 1.79   2 1.88
  69  0.493  0.488  0.375-  16 1.82   9 1.87
  70  0.480  0.484  0.875-  17 1.85   8 1.93   1 2.04
  71  0.999  0.744  0.125-  28 1.82  20 1.85
  72  0.002  0.744  0.624-  29 1.84  21 1.84
  73  0.503  0.743  0.625-  25 1.81  33 1.83
  74  0.996  0.248  0.376-  19 1.78  26 1.87
  75  0.259  0.004  0.124-  34 1.84  42 1.84
  76  0.261  0.005  0.626-  43 1.84  35 1.85
  77  0.233  0.496  0.626-  45 1.78  37 1.87
  78  0.743  0.488  0.124-  48 1.83  40 1.86
  79  0.740  0.490  0.625-  49 1.83  41 1.85
  80  0.747  0.005  0.375-  46 1.84  39 1.85
  81  0.741  0.004  0.874-  47 1.82  38 1.87
  82  0.248  0.250  0.125-  50 1.84  58 1.84
  83  0.255  0.249  0.625-  59 1.83  51 1.85
  84  0.743  0.265  0.126-  62 1.81  54 1.85
  85  0.255  0.747  0.375-  60 1.83  53 1.84
  86  0.252  0.754  0.876-  52 1.83  61 1.84
  87  0.752  0.747  0.374-  64 1.81  57 1.86
  88  0.749  0.747  0.876-  56 1.83  65 1.84
  89  0.124  0.512  0.985-  36 1.82   4 1.86
  90  0.627  0.514  0.989-  40 1.83   8 1.84
  91  0.125  0.009  0.246-  10 1.83  42 1.85
  92  0.625  0.010  0.244-  14 1.84  46 1.85
  93  0.626  0.269  0.496-  55 1.81  23 1.85
  94  0.624  0.735  0.003-  56 1.83  24 1.83
  95  0.624  0.769  0.496-  57 1.82  25 1.84
  96  0.125  0.255  0.748-  27 1.84  59 1.84
  97  0.125  0.745  0.252-  60 1.83  28 1.83
  98  0.625  0.237  0.259-  62 1.82  30 1.83
  99  0.626  0.256  0.746-  63 1.84  31 1.84
 100  0.622  0.747  0.251-  32 1.79  64 1.90
 101  0.377  0.993  0.988-   6 1.83  34 1.86
 102  0.375  0.512  0.510-   9 1.82  37 1.88
 103  0.873  0.996  0.995-  38 1.80   2 1.90
 104  0.875  0.512  0.508-   5 1.84  41 1.86
 105  0.376  0.999  0.766-  15 1.81  43 1.83
 106  0.373  0.490  0.242-  44 1.83  16 1.85
 107  0.875  0.490  0.244-  12 1.84  48 1.85
 108  0.876  0.511  0.738-  13 1.82  49 1.83
 109  0.376  0.261  0.997-  50 1.85  22 1.86
 110  0.875  0.256  0.005-  54 1.81  18 1.86
 111  0.875  0.739  0.749-  65 1.82  29 1.83
 112  0.521  0.127  0.487-  23 1.78   7 1.91
 113  0.001  0.126  0.745-  27 1.80  11 1.84
 114  0.489  0.125  0.269-  30 1.82  14 1.84
 115  0.505  0.124  0.757-  31 1.83  15 1.85
 116  0.505  0.623  0.760-  33 1.83  17 1.85
 117  0.007  0.376  0.005-  18 1.83   4 1.85
 118  0.009  0.875  0.003-  20 1.81   2 1.87
 119  0.982  0.875  0.500-   3 1.82  21 1.83
 120  0.509  0.375  0.011-  22 1.81   8 1.90
 121  0.511  0.875  0.011-  24 1.83   6 1.86
 122  0.013  0.374  0.246-  26 1.80  12 1.86
 123  0.263  0.625  0.000-  36 1.80  52 1.84
 124  0.732  0.126  0.508-  39 1.83  55 1.83
 125  0.244  0.623  0.754-  61 1.82  45 1.83
 126  0.749  0.125  0.741-  63 1.82  47 1.84
 127  0.261  0.374  0.495-  51 1.81  37 1.88
 128  0.264  0.875  0.501-  35 1.85  53 1.85
 129  0.236  0.374  0.256-  58 1.82  44 1.84
 130  0.996  0.004  0.126-  10 2.01   2 2.04
 131  0.998  0.998  0.624-   3 2.01  11 2.06
 132  0.008  0.510  0.124-  12 1.98   4 1.99
 133  0.488  0.015  0.126-  14 1.96   6 1.97
 134  0.488  0.003  0.628-  15 1.92   7 2.01
 135  0.506  0.513  0.126-   8 2.00  16 2.07
 136  0.513  0.505  0.626-   9 2.03  17 2.06
 137  0.994  0.495  0.376-  12 1.93   5 2.04
 138  0.986  0.496  0.873-   4 1.93  13 2.04
 139  0.510  0.976  0.371-  14 1.91   7 2.02
 140  0.520  0.991  0.876-   6 1.96  15 1.96
 141  0.008  0.245  0.127-  18 1.96  26 2.00
 142  0.998  0.257  0.622-  27 1.96  19 2.01
 143  0.503  0.233  0.127-  30 1.95  22 1.97
 144  0.495  0.240  0.623-  23 1.95  31 1.96
 145  0.496  0.735  0.126-  32 1.95  24 1.98
 146  0.997  0.252  0.874-  18 1.96  27 1.97
 147  0.993  0.751  0.375-  21 2.02  28 2.05
 148  0.001  0.751  0.874-  29 2.03  20 2.04
 149  0.494  0.271  0.375-  30 1.95  23 1.97
 150  0.502  0.264  0.874-  31 1.96  22 1.97
 151  0.492  0.761  0.375-  32 1.93  25 2.08
 152  0.498  0.758  0.875-  24 1.94  33 2.04
 153  0.236  0.495  0.124-  36 1.95  44 1.99
 154  0.754  0.998  0.126-  46 2.02  38 2.03
 155  0.756  0.992  0.624-  39 2.01  47 2.05
 156  0.244  0.000  0.375-  42 2.03  35 2.04
 157  0.238  0.992  0.875-  43 2.04  34 2.04
 158  0.255  0.511  0.375-  44 1.93  37 2.04
 159  0.273  0.490  0.875-  36 2.00   1 2.04  45 2.14
 160  0.753  0.509  0.374-  41 2.04  48 2.05
 161  0.761  0.510  0.875-  40 2.03  49 2.05
 162  0.250  0.753  0.125-  52 2.02  60 2.04
 163  0.248  0.748  0.626-  61 2.03  53 2.04
 164  0.755  0.265  0.624-  55 1.97  63 1.99
 165  0.751  0.753  0.126-  64 2.03  56 2.03
 166  0.747  0.752  0.625-  57 2.01  65 2.05
 167  0.252  0.244  0.374-  58 2.02  51 2.03
 168  0.252  0.255  0.875-  50 2.03  59 2.04
 169  0.761  0.240  0.374-  55 1.95  62 2.05
 170  0.751  0.240  0.876-  63 1.95  54 2.04
 171  0.127  0.009  0.006-  34 2.02   2 2.03
 172  0.125  0.987  0.505-   3 1.95  35 1.98
 173  0.123  0.489  0.486-   5 2.03  37 2.06
 174  0.624  0.010  0.012-   6 2.02  38 2.07
 175  0.629  0.974  0.509-  39 1.93   7 2.03
 176  0.626  0.486  0.493-  41 2.02   9 2.08
 177  0.127  0.996  0.741-  11 1.95  43 2.03
 178  0.124  0.513  0.256-  12 2.03  44 2.05
 179  0.124  0.489  0.770-  45 1.95  13 2.08
 180  0.624  0.992  0.736-  47 1.94  15 2.05
 181  0.624  0.506  0.255-  48 2.03  16 2.04
 182  0.626  0.489  0.765-  17 1.94  49 2.06
 183  0.126  0.245  0.995-  18 2.02  50 2.03
 184  0.123  0.261  0.499-  19 1.94  51 2.02
 185  0.125  0.736  1.000-  52 1.97  20 1.99
 186  0.124  0.763  0.495-  21 1.98  53 1.99
 187  0.626  0.244  0.996-  22 2.02  54 2.04
 188  0.125  0.232  0.255-  26 1.97  58 1.99
 189  0.124  0.757  0.752-  61 1.93  29 2.03
 190  0.626  0.756  0.752-  33 1.93  65 2.03
 191  0.373  0.020  0.486-  35 1.92   7 2.01
 192  0.372  0.482  0.008-   1 1.97  36 2.07   8 2.13
 193  0.875  0.021  0.502-   3 1.96  39 1.97
 194  0.875  0.491  0.007-   4 2.02  40 2.03
 195  0.376  0.990  0.259-  14 2.02  42 2.05
 196  0.374  0.502  0.735-  17 1.99  45 1.99
 197  0.874  0.993  0.250-  46 2.01  10 2.05
 198  0.875  0.997  0.751-  47 1.97  11 1.98
 199  0.378  0.233  0.495-  51 1.95  23 2.03
 200  0.376  0.764  0.003-  52 1.94  24 2.03
 201  0.377  0.733  0.503-  53 1.96  25 2.03
 202  0.875  0.235  0.504-  19 1.92  55 2.08
 203  0.872  0.762  0.999-  20 1.95  56 2.03
 204  0.872  0.731  0.504-  21 1.95  57 2.05
 205  0.377  0.264  0.247-  58 1.96  30 2.03
 206  0.377  0.248  0.756-  31 2.03  59 2.05
 207  0.376  0.754  0.246-  32 2.01  60 2.06
 208  0.375  0.749  0.748-  33 1.97  61 1.97
 209  0.874  0.264  0.245-  26 1.95  62 2.06
 210  0.875  0.251  0.749-  63 2.02  27 2.04
 211  0.873  0.754  0.249-  64 1.98  28 2.06
 212  0.998  0.128  1.000-  18 2.01   2 2.05
 213  0.014  0.126  0.507-  19 1.92   3 2.10
 214  0.986  0.625  0.993-   4 2.01  20 2.07
 215  0.013  0.626  0.491-   5 1.93  21 2.04
 216  0.497  0.126  0.989-   6 2.05  22 2.06
 217  0.483  0.626  0.992-   8 2.02  24 2.06
 218  0.516  0.625  0.490-  25 1.97   9 2.02
 219  0.985  0.128  0.247-  10 1.96  26 2.03
 220  0.991  0.623  0.258-  28 1.96  12 2.01
 221  0.015  0.624  0.757-  13 1.96  29 1.98
 222  0.493  0.625  0.262-  32 1.96  16 2.01
 223  0.988  0.374  0.500-  19 1.96   5 2.01
 224  0.484  0.372  0.513-   9 1.94  23 2.07
 225  0.479  0.875  0.507-  25 1.95   7 2.04
 226  0.993  0.375  0.749-  13 1.93  27 2.05
 227  0.002  0.876  0.249-  10 1.97  28 1.98
 228  0.997  0.875  0.747-  29 1.93  11 2.05
 229  0.511  0.372  0.235-  16 1.96  30 2.05
 230  0.493  0.373  0.739-  17 2.04  31 2.05
 231  0.502  0.875  0.233-  32 1.93  14 2.08
 232  0.499  0.873  0.748-  15 2.03  33 2.04
 233  0.255  0.125  0.991-  50 1.96  34 1.98
 234  0.235  0.125  0.497-  35 2.04  51 2.06
 235  0.236  0.626  0.504-  53 2.03  37 2.04
 236  0.752  0.127  0.009-  54 1.94  38 1.97
 237  0.767  0.625  0.009-  40 1.95  56 1.96
 238  0.734  0.625  0.505-  57 1.98  41 1.99
 239  0.266  0.127  0.253-  42 1.94  58 2.04
 240  0.248  0.124  0.760-  59 1.97  43 1.98
 241  0.257  0.623  0.240-  60 1.95  44 2.03
 242  0.767  0.127  0.241-  62 1.95  46 1.97
 243  0.754  0.624  0.242-  64 1.95  48 1.95
 244  0.736  0.624  0.744-  65 1.98  49 1.98
 245  0.243  0.377  0.995-  50 1.96  36 2.06
 246  0.238  0.874  0.005-  34 1.94  52 2.02
 247  0.741  0.376  0.983-  54 1.96  40 1.96
 248  0.768  0.373  0.487-  41 1.96  55 2.05
 249  0.736  0.875  0.002-  56 1.95  38 1.97
 250  0.772  0.876  0.498-  57 1.94  39 2.08
 251  0.261  0.376  0.756-  59 1.96  45 2.03
 252  0.247  0.875  0.250-  42 1.97  60 1.98
 253  0.251  0.872  0.744-  43 1.93  61 2.03
 254  0.739  0.375  0.268-  62 1.95  48 1.96
 255  0.759  0.374  0.763-  49 1.93  63 2.06
 256  0.746  0.876  0.249-  64 1.95  46 1.96
 257  0.754  0.874  0.750-  65 1.93  47 2.05
 

IMPORTANT INFORMATION: All symmetrisations will be switched off!
NOSYMM: (Re-)initialisation of all symmetry stuff for point group C_1.

 
 
 KPOINTS: Title                                   

Automatic generation of k-mesh.
Space group operators:
 irot       det(A)        alpha          n_x          n_y          n_z        tau_x        tau_y        tau_z
    1     1.000000     0.000001     1.000000     0.000000     0.000000     0.000000     0.000000     0.000000
 
 Subroutine IBZKPT returns following result:
 ===========================================
 
 Found      4 irreducible k-points:
 
 Following reciprocal coordinates:
            Coordinates               Weight
  0.250000  0.250000  0.250000      2.000000
 -0.250000  0.250000  0.250000      2.000000
  0.250000 -0.250000  0.250000      2.000000
 -0.250000 -0.250000  0.250000      2.000000
 
 Following cartesian coordinates:
            Coordinates               Weight
  0.016206  0.016206  0.016206      2.000000
 -0.016206  0.016206  0.016206      2.000000
  0.016206 -0.016206  0.016206      2.000000
 -0.016206 -0.016206  0.016206      2.000000
 


--------------------------------------------------------------------------------------------------------




 Dimension of arrays:
   k-points           NKPTS =      4   k-points in BZ     NKDIM =      4   number of bands    NBANDS=   1164
   number of dos      NEDOS =   3001   number of ions     NIONS =    257
   non local maximal  LDIM  =      6   non local SUM 2l+1 LMDIM =     18
   total plane-waves  NPLWV = ******
   max r-space proj   IRMAX =   7595   max aug-charges    IRDMAX= 146383
   dimension x,y,z NGX =   120 NGY =  120 NGZ =  120
   dimension x,y,z NGXF=   240 NGYF=  240 NGZF=  240
   support grid    NGXF=   480 NGYF=  480 NGZF=  480
   ions per type =               1  64  64 128
   NGX,Y,Z   is equivalent  to a cutoff of  12.93, 12.93, 12.93 a.u.
   NGXF,Y,Z  is equivalent  to a cutoff of  25.86, 25.86, 25.86 a.u.

 SYSTEM =  LTO                                     
 POSCAR =  config 24                               

 Startparameter for this run:
   NWRITE =      2    write-flag & timer
   PREC   = accura    normal or accurate (medium, high low for compatibility)
   ISTART =      1    job   : 0-new  1-cont  2-samecut
   ICHARG =      0    charge: 1-file 2-atom 10-const
   ISPIN  =      2    spin polarized calculation?
   LNONCOLLINEAR =      F non collinear calculations
   LSORBIT =      F    spin-orbit coupling
   INIWAV =      1    electr: 0-lowe 1-rand  2-diag
   LASPH  =      T    aspherical Exc in radial PAW
   METAGGA=      F    non-selfconsistent MetaGGA calc.

 Electronic Relaxation 1
   ENCUT  =  500.0 eV  36.75 Ry    6.06 a.u.  28.13 28.13 28.13*2*pi/ulx,y,z
   ENINI  =  500.0     initial cutoff
   ENAUG  =  628.9 eV  augmentation charge cutoff
   NELM   =     60;   NELMIN=  2; NELMDL=  0     # of ELM steps 
   EDIFF  = 0.1E-05   stopping-criterion for ELM
   LREAL  =      T    real-space projection
   NLSPLINE    = F    spline interpolate recip. space projectors
   LCOMPAT=      F    compatible to vasp.4.4
   GGA_COMPAT  = T    GGA compatible to vasp.4.4-vasp.4.6
   LMAXPAW     = -100 max onsite density
   LMAXMIX     =    4 max onsite mixed and CHGCAR
   VOSKOWN=      0    Vosko Wilk Nusair interpolation
   ROPT   =   -0.00010  -0.00010  -0.00010  -0.00010
 Ionic relaxation
   EDIFFG = -.5E-01   stopping-criterion for IOM
   NSW    =    100    number of steps for IOM
   NBLOCK =      1;   KBLOCK =    100    inner block; outer block 
   IBRION =      1    ionic relax: 0-MD 1-quasi-New 2-CG
   NFREE  =      0    steps in history (QN), initial steepest desc. (CG)
   ISIF   =      2    stress and relaxation
   IWAVPR =     11    prediction:  0-non 1-charg 2-wave 3-comb
   ISYM   =      0    0-nonsym 1-usesym 2-fastsym
   LCORR  =      T    Harris-Foulkes like correction to forces

   POTIM  = 0.5000    time-step for ionic-motion
   TEIN   =    0.0    initial temperature
   TEBEG  =    0.0;   TEEND  =   0.0 temperature during run
   SMASS  =  -3.00    Nose mass-parameter (am)
   estimated Nose-frequenzy (Omega)   =  0.10E-29 period in steps =****** mass=  -0.544E-26a.u.
   SCALEE = 1.0000    scale energy and forces
   NPACO  =    256;   APACO  = 16.0  distance and # of slots for P.C.
   PSTRESS=    0.0 pullay stress

  Mass of Ions in am
   POMASS =   7.01 47.88 16.00 19.00
  Ionic Valenz
   ZVAL   =   3.00 10.00  6.00  7.00
  Atomic Wigner-Seitz radii
   RWIGS  =  -1.00 -1.00 -1.00 -1.00
  virtual crystal weights 
   VCA    =   1.00  1.00  1.00  1.00
   NELECT =    1923.0000    total number of electrons
   NUPDOWN=       1.0000    fix difference up-down

 DOS related values:
   EMIN   =  10.00;   EMAX   =-10.00  energy-range for DOS
   EFERMI =   0.00
   ISMEAR =     0;   SIGMA  =   0.01  broadening in eV -4-tet -1-fermi 0-gaus

 Electronic relaxation 2 (details)
   IALGO  =     38    algorithm
   LDIAG  =      T    sub-space diagonalisation (order eigenvalues)
   LSUBROT=      F    optimize rotation matrix (better conditioning)
   TURBO    =      0    0=normal 1=particle mesh
   IRESTART =      0    0=no restart 2=restart with 2 vectors
   NREBOOT  =      0    no. of reboots
   NMIN     =      0    reboot dimension
   EREF     =   0.00    reference energy to select bands
   IMIX   =      4    mixing-type and parameters
     AMIX     =   0.40;   BMIX     =  1.00
     AMIX_MAG =   1.60;   BMIX_MAG =  1.00
     AMIN     =   0.10
     WC   =   100.;   INIMIX=   1;  MIXPRE=   1;  MAXMIX= -45

 Intra band minimization:
   WEIMIN = 0.0010     energy-eigenvalue tresh-hold
   EBREAK =  0.21E-09  absolut break condition
   DEPER  =   0.30     relativ break condition  

   TIME   =   0.40     timestep for ELM

  volume/ion in A,a.u.               =      14.28        96.39
  Fermi-wavevector in a.u.,A,eV,Ry     =   1.319690  2.493853 23.695660  1.741582
  Thomas-Fermi vector in A             =   2.449570
 
 Write flags
   LWAVE        =      T    write WAVECAR
   LDOWNSAMPLE  =      F    k-point downsampling of WAVECAR
   LCHARG       =      T    write CHGCAR
   LVTOT        =      F    write LOCPOT, total local potential
   LVHAR        =      F    write LOCPOT, Hartree potential only
   LELF         =      F    write electronic localiz. function (ELF)
   LORBIT       =     11    0 simple, 1 ext, 2 COOP (PROOUT), +10 PAW based schemes


 Dipole corrections
   LMONO  =      F    monopole corrections only (constant potential shift)
   LDIPOL =      F    correct potential (dipole corrections)
   IDIPOL =      0    1-x, 2-y, 3-z, 4-all directions 
   EPSILON=  1.0000000 bulk dielectric constant

 LDA+U is selected, type is set to LDAUTYPE =  2
   angular momentum for each species LDAUL =    -1    2   -1   -1
   U (eV)           for each species LDAUU =   0.0  4.2  0.0  0.0
   J (eV)           for each species LDAUJ =   0.0  0.0  0.0  0.0
 Exchange correlation treatment:
   GGA     =    PS    GGA type
   LEXCH   =    14    internal setting for exchange type
   VOSKOWN=      0    Vosko Wilk Nusair interpolation
   LHFCALC =     F    Hartree Fock is set to
   LHFONE  =     F    Hartree Fock one center treatment
   AEXX    =    0.0000 exact exchange contribution

 Linear response parameters
   LEPSILON=     F    determine dielectric tensor
   LRPA    =     F    only Hartree local field effects (RPA)
   LNABLA  =     F    use nabla operator in PAW spheres
   LVEL    =     F    velocity operator in full k-point grid
   LINTERFAST=   F  fast interpolation
   KINTER  =     0    interpolate to denser k-point grid
   CSHIFT  =0.1000    complex shift for real part using Kramers Kronig
   OMEGAMAX=  -1.0    maximum frequency
   DEG_THRESHOLD= 0.2000000E-02 threshold for treating states as degnerate
   RTIME   =   -0.100 relaxation time in fs
  (WPLASMAI=    0.000 imaginary part of plasma frequency in eV, 0.658/RTIME)
   DFIELD  = 0.0000000 0.0000000 0.0000000 field for delta impulse in time
 
 Orbital magnetization related:
   ORBITALMAG=     F  switch on orbital magnetization
   LCHIMAG   =     F  perturbation theory with respect to B field
   DQ        =  0.001000  dq finite difference perturbation B field
   LLRAUG    =     F  two centre corrections for induced B field



--------------------------------------------------------------------------------------------------------


 quasi-Newton-method for relaxation of ions
 charge density and potential will be updated during run
 spin polarized calculation
 Variant of blocked Davidson
 Davidson routine will perform the subspace rotation
 perform sub-space diagonalisation
    after iterative eigenvector-optimisation
 modified Broyden-mixing scheme, WC =      100.0
 initial mixing is a Kerker type mixing with AMIX =  0.4000 and BMIX =      1.0000
 Hartree-type preconditioning will be used
 using additional bands          202
 real space projection scheme for non local part
 use partial core corrections
 calculate Harris-corrections to forces 
   (improved forces if not selfconsistent)
 use gradient corrections 
 use of overlap-Matrix (Vanderbilt PP)
 Gauss-broadening in eV      SIGMA  =   0.01


--------------------------------------------------------------------------------------------------------


  energy-cutoff  :      500.00
  volume of cell :     3671.03
      direct lattice vectors                 reciprocal lattice vectors
    15.426331000  0.000000000  0.000000000     0.064824228  0.000000000  0.000000000
     0.000000000 15.426331000  0.000000000     0.000000000  0.064824228  0.000000000
     0.000000000  0.000000000 15.426331000     0.000000000  0.000000000  0.064824228

  length of vectors
    15.426331000 15.426331000 15.426331000     0.064824228  0.064824228  0.064824228


 
 old parameters found on file WAVECAR:
  energy-cutoff  :      500.00
  volume of cell :     3671.03
      direct lattice vectors                 reciprocal lattice vectors
    15.426331000  0.000000000  0.000000000     0.064824228  0.000000000  0.000000000
     0.000000000 15.426331000  0.000000000     0.000000000  0.064824228  0.000000000
     0.000000000  0.000000000 15.426331000     0.000000000  0.000000000  0.064824228

  length of vectors

 
 k-points in units of 2pi/SCALE and weight: Title                                   
   0.01620606  0.01620606  0.01620606       0.250
  -0.01620606  0.01620606  0.01620606       0.250
   0.01620606 -0.01620606  0.01620606       0.250
  -0.01620606 -0.01620606  0.01620606       0.250
 
 k-points in reciprocal lattice and weights: Title                                   
   0.25000000  0.25000000  0.25000000       0.250
  -0.25000000  0.25000000  0.25000000       0.250
   0.25000000 -0.25000000  0.25000000       0.250
  -0.25000000 -0.25000000  0.25000000       0.250
 
 position of ions in fractional coordinates (direct lattice) 
   0.37438410  0.41014560  0.90313777
   0.99616986  0.99485262  0.99441714
   0.99862887  0.99137631  0.49372826
   0.00512063  0.49594019  0.99640768
   0.99438835  0.50377455  0.50762914
   0.49490666  0.99369643  0.00014764
   0.50177502  0.00491678  0.49824422
   0.50844429  0.49738385  0.99688574
   0.49127948  0.49683652  0.49645638
   0.00683923  0.00361284  0.25565864
   0.00257330  0.00702690  0.75693818
   0.99378930  0.49280982  0.25050639
   0.99303520  0.49944861  0.74067625
   0.50588442  0.00826017  0.25110714
   0.49262281  0.00461818  0.75253260
   0.49230392  0.49493925  0.25797391
   0.50113820  0.50366540  0.75886652
   0.99545438  0.25804267  0.00134682
   0.99863991  0.24801456  0.49147758
   0.99828781  0.75805488  0.00612089
   0.99625372  0.75708520  0.50566519
   0.49598890  0.25871195  0.00166728
   0.50953392  0.24145685  0.49752712
   0.50768085  0.75662539  0.00017496
   0.50726347  0.75118745  0.50865444
   0.99992666  0.25850474  0.25528321
   0.00700526  0.24256118  0.74721014
   0.00628949  0.74780238  0.24303743
   0.99284614  0.74974662  0.74282120
   0.50702124  0.24026353  0.25285055
   0.50791593  0.24201920  0.74944224
   0.50606982  0.75070921  0.25124626
   0.50237839  0.74116356  0.74404868
   0.25715513  0.99777221  0.00538188
   0.25266833  0.99436923  0.50638166
   0.24091435  0.51040722  0.99877341
   0.25482106  0.49495175  0.50651521
   0.75694351  0.00032788  0.99397049
   0.74844902  0.00866990  0.49518444
   0.74339348  0.50092737  0.00463064
   0.75562516  0.49829425  0.50621565
   0.24497023  0.00300087  0.24308684
   0.25897236  0.99746122  0.74444170
   0.25504219  0.49173258  0.25163419
   0.24541736  0.50566015  0.73998598
   0.74413976  0.00225548  0.25586918
   0.74746744  0.00689291  0.75589035
   0.75518359  0.49778323  0.24216832
   0.75752077  0.49786084  0.74204819
   0.25642366  0.25127067  0.00581874
   0.25426947  0.25677537  0.50484391
   0.25235374  0.74364402  0.99388541
   0.25272400  0.75612516  0.49349231
   0.75718109  0.25238932  0.00767280
   0.74061175  0.24378376  0.49835070
   0.74137016  0.74866657  0.99439403
   0.74165091  0.75332848  0.49433383
   0.25070957  0.25785777  0.24381204
   0.24431486  0.25056068  0.74257065
   0.24346770  0.74754044  0.25641603
   0.24774795  0.74127143  0.75714108
   0.74168089  0.25094445  0.24245527
   0.74457199  0.24219903  0.75025712
   0.74505112  0.74967309  0.25710737
   0.75776853  0.74947651  0.75702709
   0.01544747  0.50288853  0.62457355
   0.00077193  0.00457774  0.37597773
   0.00585558  0.00117107  0.87306530
   0.49275964  0.48753992  0.37541405
   0.48044258  0.48437709  0.87545193
   0.99895695  0.74400036  0.12538399
   0.00237530  0.74448116  0.62415004
   0.50327990  0.74292543  0.62533615
   0.99587531  0.24841746  0.37603999
   0.25899305  0.00408458  0.12443949
   0.26090799  0.00514050  0.62571694
   0.23284128  0.49622806  0.62566558
   0.74254502  0.48822076  0.12427715
   0.73991976  0.48954949  0.62480711
   0.74716006  0.00466630  0.37529240
   0.74119448  0.00357490  0.87389451
   0.24764962  0.24986959  0.12466428
   0.25460706  0.24853693  0.62468554
   0.74294923  0.26461674  0.12596307
   0.25488131  0.74655042  0.37477577
   0.25235965  0.75405465  0.87576937
   0.75165278  0.74696555  0.37438792
   0.74894806  0.74655414  0.87588822
   0.12383152  0.51161629  0.98510573
   0.62654718  0.51358020  0.98897998
   0.12522172  0.00933006  0.24613153
   0.62493847  0.00962388  0.24374578
   0.62628957  0.26902129  0.49629457
   0.62416926  0.73465800  0.00273753
   0.62435562  0.76851280  0.49618098
   0.12534974  0.25520328  0.74787747
   0.12478130  0.74493213  0.25248412
   0.62534948  0.23747826  0.25873350
   0.62625861  0.25572924  0.74607620
   0.62217328  0.74703912  0.25109740
   0.37654814  0.99265297  0.98849529
   0.37534248  0.51231584  0.51024416
   0.87328479  0.99558606  0.99490283
   0.87531914  0.51249851  0.50757993
   0.37588859  0.99885159  0.76584276
   0.37325925  0.48951187  0.24204446
   0.87488569  0.49000661  0.24389399
   0.87550983  0.51070671  0.73784054
   0.37570186  0.26109936  0.99742724
   0.87469643  0.25575999  0.00477991
   0.87492258  0.73940655  0.74870402
   0.52059968  0.12685964  0.48651497
   0.00072399  0.12603788  0.74522467
   0.48869722  0.12504031  0.26876358
   0.50471190  0.12382344  0.75749910
   0.50474692  0.62346910  0.75956962
   0.00684244  0.37636602  0.00466531
   0.00872150  0.87469036  0.00270276
   0.98248890  0.87465378  0.49954121
   0.50859457  0.37518522  0.01112087
   0.51056722  0.87479112  0.01147861
   0.01339014  0.37421700  0.24625201
   0.26347959  0.62517806  0.00037472
   0.73161379  0.12563106  0.50773123
   0.24408430  0.62339945  0.75448891
   0.74851346  0.12490166  0.74056929
   0.26102137  0.37375203  0.49502177
   0.26357330  0.87519471  0.50126108
   0.23608271  0.37429597  0.25556207
   0.99571003  0.00394349  0.12610169
   0.99783042  0.99840403  0.62386938
   0.00835952  0.51017876  0.12437677
   0.48798966  0.01514564  0.12580886
   0.48785520  0.00271389  0.62800200
   0.50578962  0.51272394  0.12578347
   0.51326291  0.50518332  0.62611325
   0.99423232  0.49465211  0.37576318
   0.98645120  0.49608012  0.87261226
   0.50993273  0.97646120  0.37092596
   0.52042190  0.99106124  0.87590264
   0.00768304  0.24508062  0.12687534
   0.99829838  0.25722287  0.62150012
   0.50328407  0.23295766  0.12659050
   0.49490057  0.24034709  0.62317494
   0.49550715  0.73493799  0.12630336
   0.99722919  0.25233019  0.87432300
   0.99331453  0.75101997  0.37509022
   0.00060691  0.75146384  0.87409388
   0.49354848  0.27108418  0.37463659
   0.50190591  0.26374867  0.87424679
   0.49226198  0.76055169  0.37494828
   0.49768512  0.75788590  0.87498347
   0.23610945  0.49480699  0.12412719
   0.75408236  0.99772002  0.12570121
   0.75595873  0.99200566  0.62392985
   0.24446253  0.00022833  0.37463406
   0.23777817  0.99234435  0.87476576
   0.25525105  0.51083163  0.37508395
   0.27313474  0.49044814  0.87493978
   0.75282996  0.50946122  0.37431642
   0.76122766  0.51017484  0.87455208
   0.25049922  0.75294133  0.12466876
   0.24810477  0.74752146  0.62567864
   0.75475234  0.26459265  0.62358672
   0.75149089  0.75272709  0.12575050
   0.74697442  0.75228892  0.62472436
   0.25192043  0.24420282  0.37375485
   0.25154955  0.25483425  0.87464995
   0.76101237  0.24014553  0.37364211
   0.75134021  0.24024173  0.87640996
   0.12664286  0.00892776  0.00649745
   0.12471246  0.98709268  0.50504353
   0.12312401  0.48932234  0.48605086
   0.62449390  0.00962179  0.01225662
   0.62924124  0.97404263  0.50860799
   0.62573092  0.48553058  0.49250453
   0.12730003  0.99642975  0.74135787
   0.12366476  0.51266541  0.25621364
   0.12399061  0.48885995  0.76991011
   0.62396368  0.99186753  0.73634251
   0.62420488  0.50603567  0.25479809
   0.62607601  0.48949377  0.76549408
   0.12577036  0.24526440  0.99461949
   0.12347441  0.26141808  0.49910423
   0.12517338  0.73644155  0.99972420
   0.12388219  0.76338711  0.49544798
   0.62581877  0.24376125  0.99587143
   0.12470208  0.23170558  0.25473868
   0.12359800  0.75673666  0.75227525
   0.62629046  0.75629715  0.75181643
   0.37284059  0.01996980  0.48620044
   0.37196446  0.48232863  0.00816607
   0.87510819  0.02087144  0.50199062
   0.87452412  0.49140362  0.00680829
   0.37629993  0.99038170  0.25883475
   0.37449412  0.50173914  0.73463239
   0.87412601  0.99337393  0.25037791
   0.87465759  0.99697392  0.75084666
   0.37808201  0.23346552  0.49502745
   0.37631403  0.76374039  0.00310681
   0.37729150  0.73250266  0.50302067
   0.87529316  0.23493797  0.50416810
   0.87191660  0.76219799  0.99945690
   0.87226393  0.73149993  0.50400655
   0.37749420  0.26390445  0.24681466
   0.37659507  0.24751248  0.75551389
   0.37620181  0.75383683  0.24635605
   0.37520380  0.74896213  0.74812361
   0.87430388  0.26409569  0.24452084
   0.87508287  0.25115505  0.74893195
   0.87312997  0.75414295  0.24856789
   0.99814793  0.12777841  0.99972613
   0.01417103  0.12586809  0.50748268
   0.98631628  0.62487706  0.99314169
   0.01346547  0.62648310  0.49117424
   0.49664685  0.12591485  0.98939282
   0.48320503  0.62561721  0.99189512
   0.51590769  0.62503661  0.49005152
   0.98529376  0.12823291  0.24737103
   0.99087150  0.62283757  0.25801624
   0.01455170  0.62385783  0.75742520
   0.49335839  0.62503960  0.26165409
   0.98767952  0.37409882  0.49990986
   0.48437975  0.37231884  0.51331754
   0.47927507  0.87460895  0.50658133
   0.99294026  0.37487378  0.74913117
   0.00217388  0.87587962  0.24938361
   0.99659388  0.87491927  0.74663398
   0.51127964  0.37172983  0.23451997
   0.49266770  0.37342878  0.73926958
   0.50220139  0.87472422  0.23292714
   0.49914943  0.87323305  0.74827326
   0.25547084  0.12529988  0.99106861
   0.23455435  0.12515725  0.49699963
   0.23588415  0.62608872  0.50361071
   0.75176618  0.12676330  0.00938973
   0.76731906  0.62524249  0.00918804
   0.73351531  0.62545354  0.50537519
   0.26559714  0.12695736  0.25272504
   0.24809788  0.12432917  0.75959683
   0.25678418  0.62304004  0.24043901
   0.76653283  0.12715576  0.24103320
   0.75417604  0.62448314  0.24164416
   0.73559803  0.62405327  0.74364971
   0.24283633  0.37697246  0.99456706
   0.23790300  0.87353574  0.00504371
   0.74137108  0.37567124  0.98266903
   0.76830460  0.37334766  0.48742427
   0.73607662  0.87480264  0.00206993
   0.77166550  0.87561145  0.49801926
   0.26081520  0.37585321  0.75571600
   0.24696174  0.87542354  0.24962743
   0.25091921  0.87233630  0.74372961
   0.73869503  0.37450249  0.26832199
   0.75868413  0.37429072  0.76279871
   0.74559432  0.87552501  0.24916066
   0.75414338  0.87441798  0.74997079
 
 position of ions in cartesian coordinates  (Angst):
   5.77537310  6.32704181 13.93210221
  15.36724606 15.34692580 15.34020800
  15.40517956 15.29329912  7.61641554
   0.07899251  7.65053753 15.37091472
  15.33976386  7.77139298  7.83085516
   7.63459388 15.32909006  0.00227761
   7.74054760  0.07584795  7.68608030
   7.84342984  7.67280797 15.37828939
   7.57863984  7.66436464  7.65850051
   0.10550418  0.05573293  3.94387487
   0.03969661  0.10839927 11.67677896
  15.33052273  7.60224742  3.86439446
  15.31888968  7.70465957 11.42591698
   7.80394045  0.12742406  3.87366188
   7.59936247  0.07124156 11.60881695
   7.59444316  7.63509666  3.97959093
   7.73072375  7.76970924 11.70652611
  15.35620878  3.98065160  0.02077652
  15.40534986  3.82595473  7.58169580
  15.39991826 11.69400552  0.09442293
  15.36853958 11.67904685  7.80055854
   7.65128889  3.99097613  0.02571996
   7.86023893  3.72479332  7.67501806
   7.83165286 11.67195378  0.00269899
   7.82521422 11.58806625  7.84667180
  15.42519964  3.98777961  3.93808333
   0.10806548  3.74182904 11.52671095
   0.09702371 11.53584707  3.74917578
  15.31597322 11.56583953 11.45900565
   7.82147745  3.70638474  3.90055635
   7.83527925  3.73346824 11.56114408
   7.80680049 11.58068868  3.87580800
   7.74985532 11.43343444 11.47794119
   3.96696011 15.39196439  0.08302266
   3.89774524 15.33946880  7.81161109
   3.71642458  7.87371080 15.40740916
   3.93095403  7.63528957  7.81367129
  11.67686108  0.00505804 15.33331784
  11.54582232  0.13374474  7.63887914
  11.46783384  7.72747146  0.07143371
  11.65652385  7.68685197  7.80905024
   3.77899186  0.04629249  3.74993804
   3.99499339 15.38716692 11.48400413
   3.93436527  7.58562947  3.88179236
   3.78588942  7.80048088 11.41526865
  11.47934618  0.03479386  3.94712261
  11.53068010  0.10633235 11.66061472
  11.64971198  7.67896891  3.73576867
  11.68576610  7.68016613 11.44708096
   3.95567623  3.87618448  0.08976184
   3.92244496  3.96110188  7.78788925
   3.89289238 11.47169873 15.33200538
   3.89860411 11.66423703  7.61277567
  11.68052607  3.89344118  0.11836312
  11.42492193  3.76068897  7.68772279
  11.43662148 11.54917826 15.33985151
  11.44095248 11.62109447  7.62575726
   3.86752882  3.97779938  3.76112530
   3.76888196  3.86523196 11.45514067
   3.75581337 11.53180623  3.95555855
   3.82184187 11.43509852 11.67990895
  11.44141489  3.87115223  3.74019532
  11.48601403  3.73624238 11.57371465
  11.49340524 11.56470518  3.96622338
  11.68958823 11.56167268 11.67815042
   0.23829776  7.75772495  9.63487830
   0.01190811  0.07061780  5.79995695
   0.09033008  0.01806539 13.46819432
   7.60147327  7.52095216  5.79126137
   7.41146629  7.47216129 13.50501128
  15.41024062 11.47719577  1.93421495
   0.03664212 11.48461282  9.62834517
   7.76376238 11.46061361  9.64664237
  15.36270218  3.83217003  5.80091730
   3.99531249  0.06301011  1.91964480
   4.02485300  0.07929902  9.65251667
   3.59188662  7.65497826  9.65172427
  11.45474520  7.53145511  1.91714052
  11.41424711  7.55195249  9.63848126
  11.52593837  0.07198385  5.78938474
  11.43391137  0.05514757 13.48098595
   3.82032505  3.85457106  1.92311244
   3.92765277  3.83401295  9.63660592
  11.46098081  4.08206535  1.94314807
   3.93188350 11.51653391  5.78141509
   3.89298351 11.63229668 13.50990817
  11.59524452 11.52293788  5.77543197
  11.55352070 11.51659129 13.51174158
   1.91026600  7.89236218 15.19656711
   9.66532413  7.92265820 15.25633253
   1.93171170  0.14392857  3.79690641
   9.64050777  0.14846109  3.76010314
   9.66135019  4.15001147  7.65600433
   9.62864157 11.33307743  0.04222998
   9.63151638 11.85533280  7.65425203
   1.93368651  3.93685020 11.53700541
   1.92491769 11.49156963  3.89490367
   9.64684814  3.66341820  3.99130860
   9.66087261  3.94496397 11.50921849
   9.59785092 11.52407281  3.87351157
   5.80875619 15.31299325 15.24885550
   5.79015741  7.90315376  7.87119531
  13.47158018 15.35824007 15.34770043
  13.50296276  7.90597166  7.83009600
   5.79858174 15.40861530 11.81414398
   5.75802075  7.55137207  3.73385803
  13.49627631  7.55900409  3.76238939
  13.50590436  7.87833079 11.38217236
   5.79570130  4.02780519 15.38664268
  13.49335659  3.94543819  0.07373642
  13.49684535 11.40633013 11.54975610
   8.03094294  1.95697883  7.50514093
   0.01116848  1.94430198 11.49608248
   7.53880502  1.92891324  4.14603593
   7.78585281  1.91014130 11.68543187
   7.78639308  9.61784075 11.71737239
   0.10555381  5.80594673  0.07196856
   0.13454074 13.49326295  0.04169374
  15.15619892 13.49269873  7.70608808
   7.84574815  5.78773142  0.17155417
   7.87617886 13.49481735  0.17707280
   0.20656073  5.77279533  3.79876507
   4.06452333  9.64420368  0.00578054
  11.28611649  1.93802628  7.83242995
   3.76532522  9.61676629 11.63899559
  11.54681646  1.92677428 11.42426694
   4.02660211  5.76562260  7.63636975
   4.06596902 13.50104327  7.73261927
   3.64189007  5.77401346  3.94238507
  15.36015255  0.06083357  1.94528638
  15.39286239 15.40171104  9.62401555
   0.12895667  7.87018643  1.91867725
   7.52789009  0.23364160  1.94076918
   7.52581573  0.04186531  9.68776668
   7.80247816  7.90944923  1.94037744
   7.91776348  7.79312515  9.65863031
  15.33735681  7.63066723  5.79664719
  15.21732272  7.65269616 13.46120559
   7.86639101 15.06321368  5.72202661
   8.02820048 15.28843876 13.51196412
   0.11852114  3.78069475  1.95722097
  15.40008118  3.96800510  9.58746651
   7.76382666  3.59368204  1.95282690
   7.63450000  3.70767369  9.61330283
   7.64385723 11.33739674  1.94839745
  15.38358759  3.89252904 13.48759593
  15.32319869 11.58548260  5.78626591
   0.00936236 11.59232989 13.48406159
   7.61364227  4.18183427  5.77926799
   7.74256667  4.06867426 13.48642036
   7.59379618 11.73252216  5.78407625
   7.67745542 11.69139875 13.49778468
   3.64230251  7.63305636  1.91482715
  11.63272405 15.39115921  1.93910854
  11.66166967 15.30300762  9.62494836
   3.77115991  0.00352232  5.77922908
   3.66804474 15.30823244 13.49442613
   3.93758712  7.88025774  5.78616918
   4.21346689  7.56581527 13.49711065
  11.61340422  7.85911736  5.77432894
  11.74294992  7.87012594 13.49112987
   3.86428382 11.61512225  1.92318152
   3.82734631 11.53151353  9.65192577
  11.64305948  4.08169376  9.61965515
  11.59274727 11.61181726  1.93986886
  11.52307467 11.60505795  9.63720482
   3.88620792  3.76715350  5.76566607
   3.88048655  3.93115743 13.49263965
  11.73962873  3.70456438  5.76392681
  11.59042273  3.70604851 13.51979016
   1.95363470  0.13772252  0.10023186
   1.92385572 15.22721847  7.79096873
   1.89935179  7.54844838  7.49798138
   9.63364960  0.14842892  0.18907463
   9.70688363 15.02590404  7.84595517
   9.65273224  7.48995539  7.59753790
   1.96377233 15.37125510 11.43643188
   1.90769349  7.90854625  3.95243636
   1.91272012  7.54131542 11.87688825
   9.62547026 15.30087686 11.35906330
   9.62919114  7.80627374  3.93059969
   9.65805579  7.55109287 11.80876507
   1.94017523  3.78352981 15.34332950
   1.90475709  4.03272176  7.69934706
   1.93096603 11.36059119 15.42207635
   1.91104762 11.77626231  7.64294453
   9.65408757  3.76034170 15.36264237
   1.92369557  3.57436692  3.92968316
   1.90666373 11.67367016 11.60484695
   9.66136388 11.66689019 11.59776917
   5.75156242  0.30806077  7.50028896
   5.73804691  7.44056114  0.12597243
  13.49970863  0.32196980  7.74387342
  13.49069855  7.58055482  0.10502688
   5.80492721 15.27795598  3.99287047
   5.77707023  7.73999406 11.33268236
  13.48455717 15.32411512  3.86241250
  13.49275753 15.37964972 11.58280916
   5.83241823  3.60151632  7.63645732
   5.80514480 11.78171207  0.04792668
   5.82022362 11.29982845  7.75976338
  13.50256196  3.62423085  7.77746400
  13.45047415 11.75791843 15.41795291
  13.45583208 11.28436009  7.77497184
   5.82335043  4.07107735  3.80744459
   5.80948013  3.81820938 11.65480733
   5.80341369 11.62893639  3.80037000
   5.78801802 11.55373770 11.54080239
  13.48730109  4.07402749  3.77205948
  13.49931798  3.87440099 11.55327223
  13.46919193 11.63365883  3.83449054
  15.39776041  1.97115209 15.42210614
   0.21860693  1.94168274  7.82859575
  15.21524143  9.63956037 15.32053246
   0.20772286  9.66433567  7.57701639
   7.66143872  1.94240419 15.26270112
   7.45408073  9.65097809 15.30130240
   7.95856277  9.64202161  7.55969702
  15.19946771  1.97816337  3.81602743
  15.28551175  9.60809855  3.98024387
   0.22447939  9.62383733 11.68429186
   7.61070981  9.64206783  4.03636257
  15.23627118  5.77097220  7.71177500
   7.47220238  5.74351360  7.91860622
   7.39345582 13.49200711  7.81469124
  15.31742515  5.78292694 11.55634532
   0.03353497 13.51160897  3.84707419
  15.37378702 13.49679425 11.51782297
   7.88716890  5.73442744  3.61778274
   7.60005497  5.76063590 11.40421722
   7.74712489 13.49378531  3.59321113
   7.70004437 13.47078213 11.54311104
   3.94097778  1.93291748 15.28855248
   3.61831307  1.93071709  7.66688083
   3.63882698  9.65825181  7.76886545
  11.59699387  1.95549265  0.14484906
  11.83691775  9.64519758  0.14173782
  11.31544996  9.64845338  7.79608490
   4.09718936  1.95848628  3.89862009
   3.82723994  1.91794292 11.71779206
   3.96123781  9.61122195  3.70909175
  11.82478922  1.96154682  3.71825796
  11.63416919  9.63348363  3.72768285
  11.34757869  9.62685237 11.47178654
   3.74607357  5.81530195 15.34252068
   3.66997048 13.47545149  0.07780588
  11.43663568  5.79522886 15.15897775
  11.85212100  5.75938459  7.51916808
  11.35496159 13.49499505  0.03193139
  11.90396746 13.50747210  7.68261000
   4.02342159  5.79803610 11.65792523
   3.80971354 13.50457327  3.85083543
   3.87076272 13.45694852 11.47301919
  11.39535410  5.77719940  4.13922383
  11.70371256  5.77393253 11.76718541
  11.50178481 13.50613855  3.84363484
  11.63366546 13.48906125 11.56929764
 


--------------------------------------------------------------------------------------------------------


 k-point  1 :   0.2500 0.2500 0.2500  plane waves:   93161
 k-point  2 :  -0.2500 0.2500 0.2500  plane waves:   93161
 k-point  3 :   0.2500-0.2500 0.2500  plane waves:   93161
 k-point  4 :  -0.2500-0.2500 0.2500  plane waves:   93161

 maximum and minimum number of plane-waves per node :     11686    11606

 maximum number of plane-waves:     93161
 maximum index in each direction: 
   IXMAX=   28   IYMAX=   28   IZMAX=   27
   IXMIN=  -28   IYMIN=  -28   IZMIN=  -28


 real space projection operators:
  total allocation   :     105591.77 KBytes
  max/ min on nodes  :      13246.91      13153.95


 parallel 3D FFT for wavefunctions:
    minimum data exchange during FFTs selected (reduces bandwidth)
 parallel 3D FFT for charge:
    minimum data exchange during FFTs selected (reduces bandwidth)


 total amount of memory used by VASP MPI-rank0   291499. kBytes
=======================================================================

   base      :      30000. kBytes
   nonlr-proj:      49464. kBytes
   fftplans  :      27976. kBytes
   grid      :      34041. kBytes
   one-center:       1026. kBytes
   wavefun   :     148992. kBytes
 
     INWAV:  cpu time   51.0133: real time   51.2649
 Broyden mixing: mesh for mixing (old mesh)
   NGX = 57   NGY = 57   NGZ = 57
  (NGX  =240   NGY  =240   NGZ  =240)
  gives a total of 185193 points

 charge density for first step will be calculated from the start-wavefunctions


--------------------------------------------------------------------------------------------------------


 Maximum index for non-local projection operator          969
 Maximum index for augmentation-charges         3293 (set IRDMAX)


--------------------------------------------------------------------------------------------------------


 initial charge from wavefunction
 First call to EWALD:  gamma=   0.115
 Maximum number of real-space cells 3x 3x 3
 Maximum number of reciprocal cells 3x 3x 3

    FEWALD:  cpu time    0.0219: real time    0.0224


--------------------------------------- Iteration      1(   1)  ---------------------------------------


    POTLOK:  cpu time    0.2719: real time    0.2917
    SETDIJ:  cpu time    1.2840: real time    1.4620
     EDDAV:  cpu time  128.3220: real time  128.9455
       DOS:  cpu time    0.0031: real time    0.0111
    CHARGE:  cpu time    5.2378: real time    5.2420
    MIXING:  cpu time    0.0092: real time    0.0119
    --------------------------------------------
      LOOP:  cpu time  135.1281: real time  135.9643

 eigenvalue-minimisations  : 23088
 total energy-change (2. order) :-0.1851730E+04  (-0.3674561E+03)
 number of electron    1923.0000026 magnetization       1.0000000
 augmentation part      503.9137181 magnetization       0.3464650

 Broyden mixing:
  rms(total) = 0.79599E+01    rms(broyden)= 0.79568E+01
  rms(prec ) = 0.12352E+02
  weight for this iteration     100.00

 Free energy of the ion-electron system (eV)
  ---------------------------------------------------
  alpha Z        PSCENC =      6118.73324990
  Ewald energy   TEWEN  =   -103828.94974545
  -Hartree energ DENC   =    -64807.14394300
  -exchange      EXHF   =         0.00000000
  -V(xc)+E(xc)   XCENC  =      8955.37080962
  PAW double counting   =    196926.59267214  -197919.92417888
  entropy T*S    EENTRO =        -0.00315279
  eigenvalues    EBANDS =    -25873.65863401
  atomic energy  EATOM  =    178577.25249613
  Solvation  Ediel_sol  =         0.00000000
  ---------------------------------------------------
  free energy    TOTEN  =     -1851.73042634 eV

  energy without entropy =    -1851.72727355  energy(sigma->0) =    -1851.72884994


--------------------------------------------------------------------------------------------------------




--------------------------------------- Iteration      1(   2)  ---------------------------------------


    POTLOK:  cpu time    0.2659: real time    0.2665
    SETDIJ:  cpu time    1.3831: real time    1.3840
     EDDAV:  cpu time  145.1425: real time  146.2609
       DOS:  cpu time    0.0027: real time    0.0027
    CHARGE:  cpu time    5.2276: real time    5.2931
    MIXING:  cpu time    0.0088: real time    0.0097
    --------------------------------------------
      LOOP:  cpu time  152.0306: real time  153.2170

 eigenvalue-minimisations  : 26964
 total energy-change (2. order) :-0.1078456E+02  (-0.3187309E+03)
 number of electron    1923.0000026 magnetization       1.0000000
 augmentation part      506.0091712 magnetization       0.5746166

 Broyden mixing:
  rms(total) = 0.97944E+01    rms(broyden)= 0.97906E+01
  rms(prec ) = 0.14382E+02
  weight for this iteration     100.00

 eigenvalues of (default mixing * dielectric matrix)
  average eigenvalue GAMMA=   0.4207
  0.4207

 Free energy of the ion-electron system (eV)
  ---------------------------------------------------
  alpha Z        PSCENC =      6118.73324990
  Ewald energy   TEWEN  =   -103828.94974545
  -Hartree energ DENC   =    -64871.19713838
  -exchange      EXHF   =         0.00000000
  -V(xc)+E(xc)   XCENC  =      8953.89014916
  PAW double counting   =    198502.94185861  -199472.25406832
  entropy T*S    EENTRO =        -0.00071094
  eigenvalues    EBANDS =    -25842.93107803
  atomic energy  EATOM  =    178577.25249613
  Solvation  Ediel_sol  =         0.00000000
  ---------------------------------------------------
  free energy    TOTEN  =     -1862.51498732 eV

  energy without entropy =    -1862.51427638  energy(sigma->0) =    -1862.51463185


--------------------------------------------------------------------------------------------------------




--------------------------------------- Iteration      1(   3)  ---------------------------------------


    POTLOK:  cpu time    0.2606: real time    0.2638
    SETDIJ:  cpu time    1.3813: real time    1.3818
     EDDAV:  cpu time  146.2886: real time  147.0550
       DOS:  cpu time    0.0023: real time    0.0023
    CHARGE:  cpu time    5.1011: real time    5.2357
    MIXING:  cpu time    0.0192: real time    0.0205
    --------------------------------------------
      LOOP:  cpu time  153.0531: real time  153.9592

 eigenvalue-minimisations  : 27324
 total energy-change (2. order) : 0.1303342E+02  (-0.1222705E+03)
 number of electron    1923.0000025 magnetization       1.0000000
 augmentation part      492.0719773 magnetization       0.5747843

 Broyden mixing:
  rms(total) = 0.56281E+01    rms(broyden)= 0.56260E+01
  rms(prec ) = 0.64767E+01
  weight for this iteration     100.00

 eigenvalues of (default mixing * dielectric matrix)
  average eigenvalue GAMMA=   0.4497
  0.4497  0.4497

 Free energy of the ion-electron system (eV)
  ---------------------------------------------------
  alpha Z        PSCENC =      6118.73324990
  Ewald energy   TEWEN  =   -103828.94974545
  -Hartree energ DENC   =    -64956.03146299
  -exchange      EXHF   =         0.00000000
  -V(xc)+E(xc)   XCENC  =      8956.53606420
  PAW double counting   =    198663.90565839  -199625.98928794
  entropy T*S    EENTRO =        -0.00230166
  eigenvalues    EBANDS =    -25754.93623993
  atomic energy  EATOM  =    178577.25249613
  Solvation  Ediel_sol  =         0.00000000
  ---------------------------------------------------
  free energy    TOTEN  =     -1849.48156934 eV

  energy without entropy =    -1849.47926768  energy(sigma->0) =    -1849.48041851


--------------------------------------------------------------------------------------------------------




--------------------------------------- Iteration      1(   4)  ---------------------------------------


    POTLOK:  cpu time    0.3519: real time    0.3813
    SETDIJ:  cpu time    1.4565: real time    1.4892
     EDDAV:  cpu time  137.8789: real time  138.7036
       DOS:  cpu time    0.0021: real time    0.0021
    CHARGE:  cpu time    5.2276: real time    5.2499
    MIXING:  cpu time    0.0142: real time    0.0145
    --------------------------------------------
      LOOP:  cpu time  144.9312: real time  145.8406

 eigenvalue-minimisations  : 25500
 total energy-change (2. order) : 0.4535233E+02  (-0.2941916E+02)
 number of electron    1923.0000025 magnetization       1.0000000
 augmentation part      493.5235050 magnetization       0.5853616

 Broyden mixing:
  rms(total) = 0.41461E+01    rms(broyden)= 0.41453E+01
  rms(prec ) = 0.48113E+01
  weight for this iteration     100.00

 eigenvalues of (default mixing * dielectric matrix)
  average eigenvalue GAMMA=   0.5408
  0.5834  0.5834  0.4555

 Free energy of the ion-electron system (eV)
  ---------------------------------------------------
  alpha Z        PSCENC =      6118.73324990
  Ewald energy   TEWEN  =   -103828.94974545
  -Hartree energ DENC   =    -64919.61280162
  -exchange      EXHF   =         0.00000000
  -V(xc)+E(xc)   XCENC  =      8962.55026615
  PAW double counting   =    198805.19293567  -199784.28364947
  entropy T*S    EENTRO =        -0.00000039
  eigenvalues    EBANDS =    -25735.01198589
  atomic energy  EATOM  =    178577.25249613
  Solvation  Ediel_sol  =         0.00000000
  ---------------------------------------------------
  free energy    TOTEN  =     -1804.12923497 eV

  energy without entropy =    -1804.12923458  energy(sigma->0) =    -1804.12923477


--------------------------------------------------------------------------------------------------------




--------------------------------------- Iteration      1(   5)  ---------------------------------------


    POTLOK:  cpu time    0.2660: real time    0.2684
    SETDIJ:  cpu time    1.4365: real time    1.4375
     EDDAV:  cpu time  144.9283: real time  145.8309
       DOS:  cpu time    0.0018: real time    0.0018
    CHARGE:  cpu time    5.2342: real time    5.2378
    MIXING:  cpu time    0.0083: real time    0.0083
    --------------------------------------------
      LOOP:  cpu time  151.8751: real time  152.7847

 eigenvalue-minimisations  : 26940
 total energy-change (2. order) : 0.3099371E+02  (-0.8812535E+01)
 number of electron    1923.0000025 magnetization       1.0000000
 augmentation part      494.1319766 magnetization       0.6114992

 Broyden mixing:
  rms(total) = 0.25162E+01    rms(broyden)= 0.25158E+01
  rms(prec ) = 0.29103E+01
  weight for this iteration     100.00

 eigenvalues of (default mixing * dielectric matrix)
  average eigenvalue GAMMA=   0.6054
  0.7708  0.7708  0.4400  0.4400

 Free energy of the ion-electron system (eV)
  ---------------------------------------------------
  alpha Z        PSCENC =      6118.73324990
  Ewald energy   TEWEN  =   -103828.94974545
  -Hartree energ DENC   =    -64921.93180985
  -exchange      EXHF   =         0.00000000
  -V(xc)+E(xc)   XCENC  =      8966.85538395
  PAW double counting   =    198361.05240969  -199351.49454313
  entropy T*S    EENTRO =        -0.00000000
  eigenvalues    EBANDS =    -25694.65296576
  atomic energy  EATOM  =    178577.25249613
  Solvation  Ediel_sol  =         0.00000000
  ---------------------------------------------------
  free energy    TOTEN  =     -1773.13552452 eV

  energy without entropy =    -1773.13552452  energy(sigma->0) =    -1773.13552452


--------------------------------------------------------------------------------------------------------




--------------------------------------- Iteration      1(   6)  ---------------------------------------


    POTLOK:  cpu time    0.2613: real time    0.2637
    SETDIJ:  cpu time    1.3817: real time    1.3828
     EDDAV:  cpu time  144.7710: real time  145.6049
       DOS:  cpu time    0.0019: real time    0.0019
    CHARGE:  cpu time    5.1992: real time    5.2326
    MIXING:  cpu time    0.0078: real time    0.0078
    --------------------------------------------
      LOOP:  cpu time  151.6230: real time  152.4938

 eigenvalue-minimisations  : 26856
 total energy-change (2. order) : 0.1139424E+02  (-0.4922299E+01)
 number of electron    1923.0000025 magnetization       1.0000000
 augmentation part      495.2542684 magnetization       0.5771208

 Broyden mixing:
  rms(total) = 0.14074E+01    rms(broyden)= 0.14070E+01
  rms(prec ) = 0.15563E+01
  weight for this iteration     100.00

 eigenvalues of (default mixing * dielectric matrix)
  average eigenvalue GAMMA=   0.6724
  0.9213  0.9213  0.4457  0.5370  0.5370

 Free energy of the ion-electron system (eV)
  ---------------------------------------------------
  alpha Z        PSCENC =      6118.73324990
  Ewald energy   TEWEN  =   -103828.94974545
  -Hartree energ DENC   =    -64881.52379245
  -exchange      EXHF   =         0.00000000
  -V(xc)+E(xc)   XCENC  =      8967.91651452
  PAW double counting   =    198004.56933210  -199002.28148045
  entropy T*S    EENTRO =        -0.00000000
  eigenvalues    EBANDS =    -25717.45785915
  atomic energy  EATOM  =    178577.25249613
  Solvation  Ediel_sol  =         0.00000000
  ---------------------------------------------------
  free energy    TOTEN  =     -1761.74128485 eV

  energy without entropy =    -1761.74128485  energy(sigma->0) =    -1761.74128485


--------------------------------------------------------------------------------------------------------




--------------------------------------- Iteration      1(   7)  ---------------------------------------


    POTLOK:  cpu time    0.2630: real time    0.2632
    SETDIJ:  cpu time    1.3713: real time    1.3723
     EDDAV:  cpu time  147.4324: real time  148.3841
       DOS:  cpu time    0.0019: real time    0.0019
    CHARGE:  cpu time    5.2479: real time    5.2514
    MIXING:  cpu time    0.0082: real time    0.0082
    --------------------------------------------
      LOOP:  cpu time  154.3247: real time  155.2811

 eigenvalue-minimisations  : 27504
 total energy-change (2. order) : 0.2336084E+01  (-0.9528841E+00)
 number of electron    1923.0000026 magnetization       1.0000000
 augmentation part      496.2231410 magnetization       0.5898596

 Broyden mixing:
  rms(total) = 0.10638E+01    rms(broyden)= 0.10635E+01
  rms(prec ) = 0.11198E+01
  weight for this iteration     100.00

 eigenvalues of (default mixing * dielectric matrix)
  average eigenvalue GAMMA=   0.7880
  1.1936  1.1936  0.6758  0.6758  0.4945  0.4945

 Free energy of the ion-electron system (eV)
  ---------------------------------------------------
  alpha Z        PSCENC =      6118.73324990
  Ewald energy   TEWEN  =   -103828.94974545
  -Hartree energ DENC   =    -64843.63898541
  -exchange      EXHF   =         0.00000000
  -V(xc)+E(xc)   XCENC  =      8967.03694207
  PAW double counting   =    197648.16041737  -198650.02984209
  entropy T*S    EENTRO =        -0.00000000
  eigenvalues    EBANDS =    -25747.96973321
  atomic energy  EATOM  =    178577.25249613
  Solvation  Ediel_sol  =         0.00000000
  ---------------------------------------------------
  free energy    TOTEN  =     -1759.40520068 eV

  energy without entropy =    -1759.40520068  energy(sigma->0) =    -1759.40520068


--------------------------------------------------------------------------------------------------------




--------------------------------------- Iteration      1(   8)  ---------------------------------------


    POTLOK:  cpu time    0.2609: real time    0.2630
    SETDIJ:  cpu time    1.3696: real time    1.3707
     EDDAV:  cpu time  134.9511: real time  135.6203
       DOS:  cpu time    0.0019: real time    0.0019
    CHARGE:  cpu time    5.1712: real time    5.2475
    MIXING:  cpu time    0.0198: real time    0.0198
    --------------------------------------------
      LOOP:  cpu time  141.7744: real time  142.5231

 eigenvalue-minimisations  : 25032
 total energy-change (2. order) :-0.2366939E+00  (-0.1011526E+01)
[...]
   81        1.574   3.458   0.000   5.032
   82        1.574   3.461   0.000   5.036
   83        1.574   3.461   0.000   5.036
   84        1.576   3.468   0.000   5.044
   85        1.575   3.461   0.000   5.037
   86        1.575   3.464   0.000   5.040
   87        1.576   3.461   0.000   5.037
   88        1.575   3.465   0.000   5.039
   89        1.575   3.462   0.000   5.037
   90        1.576   3.460   0.000   5.035
   91        1.574   3.457   0.000   5.032
   92        1.574   3.457   0.000   5.031
   93        1.577   3.466   0.000   5.043
   94        1.576   3.468   0.000   5.044
   95        1.576   3.466   0.000   5.042
   96        1.574   3.464   0.000   5.038
   97        1.575   3.465   0.000   5.040
   98        1.576   3.470   0.000   5.046
   99        1.575   3.463   0.000   5.038
  100        1.576   3.457   0.000   5.032
  101        1.574   3.454   0.000   5.028
  102        1.575   3.452   0.000   5.027
  103        1.575   3.456   0.000   5.030
  104        1.574   3.454   0.000   5.028
  105        1.577   3.469   0.000   5.046
  106        1.574   3.458   0.000   5.033
  107        1.574   3.457   0.000   5.032
  108        1.576   3.469   0.000   5.044
  109        1.572   3.463   0.000   5.035
  110        1.575   3.461   0.000   5.036
  111        1.576   3.471   0.000   5.047
  112        1.575   3.469   0.000   5.044
  113        1.576   3.472   0.000   5.048
  114        1.577   3.465   0.000   5.042
  115        1.574   3.463   0.000   5.038
  116        1.574   3.460   0.000   5.035
  117        1.575   3.459   0.000   5.034
  118        1.575   3.460   0.000   5.035
  119        1.576   3.469   0.000   5.046
  120        1.574   3.456   0.000   5.030
  121        1.574   3.457   0.000   5.032
  122        1.577   3.465   0.000   5.042
  123        1.577   3.471   0.000   5.048
  124        1.575   3.463   0.000   5.039
  125        1.575   3.473   0.000   5.049
  126        1.576   3.469   0.000   5.045
  127        1.574   3.455   0.000   5.029
  128        1.574   3.455   0.000   5.029
  129        1.576   3.466   0.000   5.043
  130        1.737   4.369   0.000   6.106
  131        1.737   4.369   0.000   6.106
  132        1.737   4.375   0.000   6.113
  133        1.738   4.381   0.000   6.119
  134        1.737   4.384   0.000   6.121
  135        1.736   4.364   0.000   6.101
  136        1.736   4.362   0.000   6.098
  137        1.738   4.377   0.000   6.115
  138        1.738   4.377   0.000   6.115
  139        1.739   4.383   0.000   6.121
  140        1.739   4.380   0.000   6.119
  141        1.738   4.379   0.000   6.117
  142        1.738   4.380   0.000   6.118
  143        1.738   4.382   0.000   6.120
  144        1.738   4.385   0.000   6.123
  145        1.738   4.380   0.000   6.118
  146        1.737   4.381   0.000   6.118
  147        1.736   4.368   0.000   6.105
  148        1.736   4.368   0.000   6.104
  149        1.739   4.381   0.000   6.120
  150        1.738   4.384   0.000   6.122
  151        1.738   4.371   0.000   6.109
  152        1.738   4.377   0.000   6.115
  153        1.737   4.380   0.000   6.118
  154        1.737   4.370   0.000   6.107
  155        1.737   4.369   0.000   6.106
  156        1.736   4.367   0.000   6.104
  157        1.737   4.365   0.000   6.101
  158        1.738   4.375   0.000   6.113
  159        1.736   4.379   0.000   6.115
  160        1.736   4.364   0.000   6.100
  161        1.736   4.365   0.000   6.101
  162        1.737   4.369   0.000   6.106
  163        1.736   4.366   0.000   6.103
  164        1.737   4.376   0.000   6.114
  165        1.737   4.369   0.000   6.106
  166        1.736   4.368   0.000   6.105
  167        1.737   4.370   0.000   6.107
  168        1.737   4.371   0.000   6.108
  169        1.738   4.374   0.000   6.112
  170        1.737   4.376   0.000   6.113
  171        1.737   4.367   0.000   6.103
  172        1.737   4.381   0.000   6.119
  173        1.737   4.363   0.000   6.100
  174        1.737   4.365   0.000   6.102
  175        1.738   4.378   0.000   6.116
  176        1.736   4.360   0.000   6.096
  177        1.737   4.377   0.000   6.115
  178        1.737   4.365   0.000   6.101
  179        1.738   4.369   0.000   6.107
  180        1.738   4.375   0.000   6.113
  181        1.736   4.366   0.000   6.102
  182        1.737   4.370   0.000   6.108
  183        1.737   4.369   0.000   6.105
  184        1.737   4.376   0.000   6.113
  185        1.737   4.378   0.000   6.115
  186        1.737   4.376   0.000   6.112
  187        1.737   4.370   0.000   6.106
  188        1.738   4.375   0.000   6.113
  189        1.738   4.380   0.000   6.118
  190        1.738   4.379   0.000   6.118
  191        1.738   4.382   0.000   6.120
  192        1.736   4.375   0.000   6.111
  193        1.738   4.381   0.000   6.119
  194        1.737   4.369   0.000   6.106
  195        1.737   4.367   0.000   6.103
  196        1.737   4.377   0.000   6.114
  197        1.737   4.367   0.000   6.104
  198        1.737   4.380   0.000   6.117
  199        1.737   4.376   0.000   6.114
  200        1.738   4.377   0.000   6.115
  201        1.738   4.373   0.000   6.111
  202        1.738   4.372   0.000   6.110
  203        1.737   4.377   0.000   6.114
  204        1.738   4.371   0.000   6.109
  205        1.737   4.375   0.000   6.112
  206        1.736   4.368   0.000   6.105
  207        1.737   4.368   0.000   6.105
  208        1.737   4.381   0.000   6.118
  209        1.737   4.373   0.000   6.111
  210        1.737   4.370   0.000   6.107
  211        1.737   4.370   0.000   6.107
  212        1.737   4.367   0.000   6.103
  213        1.739   4.369   0.000   6.108
  214        1.736   4.365   0.000   6.101
  215        1.738   4.374   0.000   6.112
  216        1.736   4.363   0.000   6.099
  217        1.736   4.363   0.000   6.100
  218        1.737   4.372   0.000   6.109
  219        1.738   4.376   0.000   6.114
  220        1.738   4.378   0.000   6.115
  221        1.738   4.378   0.000   6.116
  222        1.737   4.376   0.000   6.113
  223        1.737   4.377   0.000   6.114
  224        1.738   4.371   0.000   6.109
  225        1.737   4.378   0.000   6.115
  226        1.738   4.378   0.000   6.116
  227        1.737   4.378   0.000   6.115
  228        1.738   4.377   0.000   6.114
  229        1.738   4.372   0.000   6.109
  230        1.737   4.367   0.000   6.103
  231        1.738   4.370   0.000   6.108
  232        1.736   4.369   0.000   6.105
  233        1.738   4.379   0.000   6.117
  234        1.736   4.363   0.000   6.100
  235        1.737   4.365   0.000   6.101
  236        1.738   4.385   0.000   6.123
  237        1.739   4.381   0.000   6.120
  238        1.737   4.373   0.000   6.110
  239        1.738   4.375   0.000   6.113
  240        1.737   4.379   0.000   6.117
  241        1.738   4.376   0.000   6.113
  242        1.738   4.382   0.000   6.120
  243        1.738   4.384   0.000   6.122
  244        1.738   4.378   0.000   6.115
  245        1.738   4.379   0.000   6.116
  246        1.738   4.377   0.000   6.115
  247        1.738   4.381   0.000   6.120
  248        1.737   4.371   0.000   6.108
  249        1.738   4.383   0.000   6.120
  250        1.738   4.367   0.000   6.105
  251        1.738   4.380   0.000   6.118
  252        1.737   4.379   0.000   6.116
  253        1.738   4.379   0.000   6.117
  254        1.739   4.382   0.000   6.121
  255        1.738   4.374   0.000   6.112
  256        1.738   4.384   0.000   6.123
  257        1.738   4.377   0.000   6.114
--------------------------------------------------
tot        345.3161194.306 111.8251651.447
 


 magnetization (x)
 
# of ion       s       p       d       tot
------------------------------------------
    1       -0.000  -0.000   0.000  -0.000
    2        0.000   0.000   0.000   0.000
    3        0.000  -0.000   0.000   0.000
    4        0.000  -0.000  -0.000  -0.000
    5        0.000   0.000   0.000   0.000
    6       -0.000  -0.000   0.000   0.000
    7        0.005   0.006   0.925   0.936
    8        0.000   0.000   0.000   0.000
    9       -0.000  -0.000  -0.000  -0.000
   10        0.000   0.000   0.000   0.000
   11       -0.000  -0.000   0.000   0.000
   12        0.000  -0.000   0.000   0.000
   13        0.000   0.000   0.000   0.000
   14       -0.000  -0.000   0.006   0.006
   15       -0.000  -0.000   0.007   0.007
   16        0.000   0.000  -0.000  -0.000
   17        0.000  -0.000   0.000   0.000
   18        0.000  -0.000   0.000   0.000
   19       -0.000  -0.000  -0.000  -0.000
   20       -0.000   0.000  -0.000  -0.000
   21       -0.000  -0.000  -0.000  -0.000
   22        0.000   0.000   0.000   0.000
   23       -0.000  -0.000  -0.004  -0.004
   24       -0.000  -0.000   0.000   0.000
   25       -0.000  -0.000  -0.000  -0.000
   26        0.000  -0.000   0.000   0.000
   27       -0.000  -0.000  -0.000  -0.000
   28       -0.000   0.000  -0.000  -0.000
   29       -0.000   0.000  -0.000  -0.000
   30       -0.000  -0.000  -0.000  -0.000
   31       -0.000  -0.000  -0.000  -0.000
   32       -0.000  -0.000   0.000   0.000
   33       -0.000  -0.000   0.000   0.000
   34        0.000   0.000   0.000   0.000
   35       -0.000   0.000   0.006   0.006
   36        0.000   0.000   0.000   0.000
   37        0.000  -0.000  -0.000  -0.000
   38       -0.000  -0.000   0.000   0.000
   39       -0.000   0.000   0.006   0.006
   40        0.000   0.000  -0.000   0.000
   41        0.000   0.000  -0.000  -0.000
   42        0.000   0.000   0.000   0.000
   43        0.000   0.000   0.003   0.003
   44        0.000  -0.000   0.000   0.000
   45       -0.000  -0.000  -0.000  -0.000
   46        0.000   0.000   0.003   0.003
   47        0.000  -0.000   0.000   0.000
   48        0.000  -0.000   0.000   0.000
   49        0.000  -0.000   0.000   0.000
   50        0.000  -0.000   0.000   0.000
   51       -0.000  -0.000  -0.000  -0.000
   52        0.000  -0.000  -0.000  -0.000
   53       -0.000  -0.000  -0.000  -0.000
   54        0.000  -0.000   0.000   0.000
   55       -0.000  -0.000  -0.000  -0.000
   56        0.000  -0.000   0.000   0.000
   57       -0.000  -0.000  -0.000  -0.000
   58       -0.000  -0.000   0.000   0.000
   59       -0.000  -0.000   0.000  -0.000
   60       -0.000  -0.000  -0.000  -0.000
   61       -0.000  -0.000   0.000   0.000
   62       -0.000  -0.000  -0.000  -0.000
   63       -0.000  -0.000   0.000   0.000
   64       -0.000  -0.000   0.000   0.000
   65       -0.000  -0.000   0.000  -0.000
   66       -0.000  -0.000   0.000  -0.000
   67       -0.000  -0.000   0.000  -0.000
   68       -0.000  -0.000   0.000  -0.000
   69        0.000  -0.000   0.000  -0.000
   70       -0.000  -0.000   0.000  -0.000
   71        0.000   0.000   0.000   0.000
   72        0.000   0.000   0.000   0.000
   73       -0.000  -0.000   0.000  -0.000
   74       -0.000  -0.000   0.000  -0.000
   75        0.000  -0.000   0.000   0.000
   76       -0.000  -0.001   0.000  -0.001
   77       -0.000   0.000   0.000   0.000
   78       -0.000  -0.000   0.000  -0.000
   79       -0.000  -0.000   0.000  -0.000
   80       -0.000  -0.001   0.000  -0.001
   81        0.000   0.000   0.000   0.000
   82        0.000   0.000   0.000   0.000
   83        0.000  -0.000   0.000  -0.000
   84        0.000  -0.000   0.000  -0.000
   85       -0.000  -0.000   0.000  -0.000
   86       -0.000  -0.000   0.000  -0.000
   87        0.000   0.000   0.000   0.000
   88       -0.000  -0.000   0.000  -0.000
   89       -0.000  -0.000   0.000  -0.000
   90       -0.000  -0.000   0.000  -0.000
   91        0.000   0.000   0.000   0.000
   92       -0.000  -0.001   0.000  -0.001
   93        0.000  -0.000   0.000  -0.000
   94       -0.000  -0.000   0.000  -0.000
   95       -0.000  -0.000   0.000  -0.000
   96        0.000  -0.000   0.000  -0.000
   97        0.000   0.000   0.000   0.000
   98       -0.000  -0.000   0.000  -0.000
   99       -0.000  -0.000   0.000  -0.000
  100       -0.000  -0.000   0.000  -0.000
  101       -0.000  -0.000   0.000  -0.000
  102        0.000   0.000   0.000   0.000
  103        0.000   0.000   0.000   0.000
  104       -0.000  -0.000   0.000  -0.000
  105       -0.000  -0.001   0.000  -0.001
  106       -0.000  -0.000   0.000  -0.000
  107       -0.000  -0.000   0.000  -0.000
  108       -0.000  -0.000   0.000  -0.000
  109       -0.000  -0.000   0.000  -0.000
  110       -0.000  -0.000   0.000  -0.000
  111        0.000  -0.000   0.000   0.000
  112       -0.001  -0.017   0.000  -0.018
  113       -0.000  -0.000   0.000  -0.000
  114       -0.000  -0.000   0.000  -0.000
  115       -0.000  -0.000   0.000  -0.000
  116       -0.000  -0.000   0.000  -0.000
  117       -0.000  -0.000   0.000  -0.000
  118       -0.000  -0.000   0.000  -0.000
  119       -0.000  -0.000   0.000  -0.000
  120       -0.000  -0.000   0.000  -0.000
  121       -0.000  -0.000   0.000  -0.000
  122       -0.000  -0.000   0.000  -0.000
  123       -0.000  -0.000   0.000  -0.000
  124       -0.000  -0.000   0.000  -0.000
  125       -0.000  -0.000   0.000  -0.000
  126       -0.000  -0.000   0.000  -0.000
  127       -0.000  -0.000   0.000  -0.000
  128       -0.000  -0.000   0.000  -0.000
  129       -0.000  -0.000   0.000  -0.000
  130        0.000   0.000   0.000   0.000
  131       -0.000  -0.000   0.000  -0.000
  132       -0.000  -0.000   0.000  -0.000
  133       -0.000  -0.000   0.000  -0.000
  134       -0.000   0.002   0.000   0.002
  135       -0.000  -0.000   0.000  -0.000
  136        0.000  -0.000   0.000  -0.000
  137       -0.000  -0.000   0.000  -0.000
  138        0.000   0.000   0.000   0.000
  139       -0.000   0.002   0.000   0.001
  140       -0.000  -0.000   0.000  -0.000
  141       -0.000  -0.000   0.000  -0.000
  142        0.000  -0.000   0.000  -0.000
  143        0.000  -0.000   0.000  -0.000
  144        0.000  -0.000   0.000  -0.000
  145       -0.000  -0.000   0.000  -0.000
  146        0.000  -0.000   0.000  -0.000
  147       -0.000   0.000   0.000   0.000
  148       -0.000   0.000   0.000   0.000
  149        0.000  -0.000   0.000  -0.000
  150        0.000  -0.000   0.000  -0.000
  151       -0.000  -0.000   0.000  -0.000
  152       -0.000  -0.000   0.000  -0.000
  153       -0.000  -0.000   0.000  -0.000
  154       -0.000   0.000   0.000   0.000
  155        0.000   0.000   0.000   0.000
  156        0.000   0.000   0.000   0.000
  157       -0.000   0.000   0.000   0.000
  158       -0.000  -0.000   0.000  -0.000
  159        0.000  -0.000   0.000  -0.000
  160       -0.000  -0.000   0.000  -0.000
  161       -0.000  -0.000   0.000  -0.000
  162        0.000   0.000   0.000   0.000
  163       -0.000  -0.000   0.000  -0.000
  164        0.000   0.000   0.000   0.000
  165       -0.000  -0.000   0.000  -0.000
  166        0.000   0.000   0.000   0.000
  167       -0.000  -0.000   0.000  -0.000
  168        0.000  -0.000   0.000  -0.000
  169        0.000   0.000   0.000   0.000
  170        0.000   0.000   0.000   0.000
  171        0.000   0.000   0.000   0.000
  172        0.000  -0.000   0.000  -0.000
  173       -0.000  -0.000   0.000  -0.000
  174       -0.000  -0.000   0.000  -0.000
  175       -0.000   0.002   0.000   0.002
  176       -0.000  -0.000   0.000  -0.000
  177       -0.000   0.000   0.000  -0.000
  178       -0.000  -0.000   0.000  -0.000
  179       -0.000   0.000   0.000   0.000
  180        0.000   0.000   0.000   0.000
  181        0.000  -0.000   0.000  -0.000
  182       -0.000  -0.000   0.000  -0.000
  183        0.000  -0.000   0.000   0.000
  184       -0.000  -0.000   0.000  -0.000
  185       -0.000   0.000   0.000   0.000
  186       -0.000  -0.000   0.000  -0.000
  187        0.000  -0.000   0.000  -0.000
  188       -0.000  -0.000   0.000  -0.000
  189       -0.000  -0.000   0.000  -0.000
  190       -0.000  -0.000   0.000  -0.000
  191       -0.000   0.002   0.000   0.002
  192       -0.000  -0.000   0.000  -0.000
  193       -0.000  -0.000   0.000  -0.000
  194       -0.000  -0.000   0.000  -0.000
  195        0.000   0.000   0.000   0.000
  196       -0.000   0.000   0.000   0.000
  197       -0.000  -0.000   0.000  -0.000
  198        0.000   0.000   0.000   0.000
  199       -0.000  -0.000   0.000  -0.000
  200       -0.000  -0.000   0.000  -0.000
  201       -0.000  -0.000   0.000  -0.000
  202        0.000  -0.000   0.000  -0.000
  203        0.000   0.000   0.000   0.000
  204       -0.000  -0.000   0.000  -0.000
  205       -0.000  -0.000   0.000  -0.000
  206       -0.000  -0.000   0.000  -0.000
  207       -0.000  -0.000   0.000  -0.000
  208       -0.000  -0.000   0.000  -0.000
  209        0.000  -0.000   0.000  -0.000
  210        0.000  -0.000   0.000  -0.000
  211        0.000   0.000   0.000   0.000
  212       -0.000  -0.000   0.000  -0.000
  213       -0.000  -0.000   0.000  -0.000
  214       -0.000   0.000   0.000   0.000
  215       -0.000  -0.000   0.000  -0.000
  216       -0.000  -0.000   0.000  -0.000
  217       -0.000  -0.000   0.000  -0.000
  218       -0.000  -0.000   0.000  -0.000
  219       -0.000  -0.000   0.000  -0.000
  220        0.000   0.000   0.000   0.000
  221       -0.000  -0.000   0.000  -0.000
  222       -0.000  -0.000   0.000  -0.000
  223       -0.000  -0.000   0.000  -0.000
  224       -0.000  -0.000   0.000  -0.000
  225       -0.000  -0.005   0.000  -0.005
  226       -0.000  -0.000   0.000  -0.000
  227       -0.000  -0.000   0.000  -0.000
  228       -0.000  -0.000   0.000  -0.000
  229       -0.000  -0.000   0.000  -0.000
  230       -0.000  -0.000   0.000  -0.000
  231       -0.000  -0.000   0.000  -0.000
  232       -0.000  -0.000   0.000  -0.000
  233       -0.000  -0.000   0.000  -0.000
  234       -0.000  -0.000   0.000  -0.000
  235       -0.000  -0.000   0.000  -0.000
  236        0.000  -0.000   0.000  -0.000
  237       -0.000  -0.000   0.000  -0.000
  238       -0.000  -0.000   0.000  -0.000
  239       -0.000  -0.000   0.000  -0.000
  240       -0.000  -0.000   0.000  -0.000
  241        0.000  -0.000   0.000  -0.000
  242       -0.000  -0.000   0.000  -0.000
  243       -0.000  -0.000   0.000  -0.000
  244       -0.000  -0.000   0.000  -0.000
  245        0.000  -0.000   0.000  -0.000
  246       -0.000  -0.000   0.000  -0.000
  247       -0.000  -0.000   0.000  -0.000
  248       -0.000  -0.000   0.000  -0.000
  249        0.000  -0.000   0.000  -0.000
  250       -0.000  -0.000   0.000  -0.000
  251        0.000   0.000   0.000   0.000
  252       -0.000  -0.000   0.000  -0.000
  253       -0.000  -0.000   0.000  -0.000
  254       -0.000  -0.000   0.000  -0.000
  255       -0.000  -0.000   0.000  -0.000
  256       -0.000  -0.000   0.000  -0.000
  257       -0.000  -0.000   0.000  -0.000
--------------------------------------------------
tot          0.002  -0.014   0.952   0.940
 

 total amount of memory used by VASP MPI-rank0   291499. kBytes
=======================================================================

   base      :      30000. kBytes
   nonlr-proj:      49464. kBytes
   fftplans  :      27976. kBytes
   grid      :      34041. kBytes
   one-center:       1026. kBytes
   wavefun   :     148992. kBytes
 
  
  
 General timing and accounting informations for this job:
 ========================================================
  
                  Total CPU time used (sec):     5118.562
                            User time (sec):     4703.020
                          System time (sec):      415.542
                         Elapsed time (sec):     5161.517
  
                   Maximum memory used (kb):      628404.
                   Average memory used (kb):           0.
  
                          Minor page faults:       497077
                          Major page faults:           53
                 Voluntary context switches:        37333
