       N       E                     dE             d eps       ncg     rms          rms(c)
DAV:   1    -0.213576013809E+03   -0.21358E+03   -0.68109E-01 20480   0.543E+00    0.711E-02
DAV:   2    -0.213576099281E+03   -0.85473E-04   -0.27362E-05 20240   0.272E-02    0.396E-02
DAV:   3    -0.213576193124E+03   -0.93843E-04   -0.18036E-05 19416   0.257E-02    0.902E-03
DAV:   4    -0.213576196760E+03   -0.36354E-05   -0.14358E-06 12496   0.961E-03    0.256E-03
DAV:   5    -0.213576196900E+03   -0.14057E-06   -0.84237E-07 11160   0.627E-03
   1 F= -.21357620E+03 E0= -.21357620E+03  d E =-.213576E+03  mag=     0.0000
