       N       E                     dE             d eps       ncg     rms          rms(c)
DAV:   1    -0.210591299886E+03   -0.21059E+03   -0.73028E-01  2560   0.556E+00    0.805E-02
DAV:   2    -0.210591414334E+03   -0.11445E-03   -0.35011E-05  2816   0.302E-02    0.450E-02
DAV:   3    -0.210591544069E+03   -0.12973E-03   -0.27749E-05  2880   0.334E-02    0.123E-02
DAV:   4    -0.210591546129E+03   -0.20599E-05   -0.49875E-06  2752   0.127E-02    0.279E-03
DAV:   5    -0.210591546367E+03   -0.23825E-06   -0.55454E-07  1280   0.434E-03
   1 F= -.21059155E+03 E0= -.21059155E+03  d E =-.210592E+03  mag=    -0.0000
