LTO                                     
           1
     7.913821   -0.000000   -0.000000
    -0.000000    7.755837    0.000017
     0.000000    0.000016    7.542866
   Ti   O    F 
   8   8  16
Direct configuration=     1
   1.00000000  0.99999991  0.98765199
   0.00000001  0.00000210  0.50946603
   1.00000000  0.50000003  0.00005662
   0.00000000  0.50000078  0.49978646
   0.50000000  0.00000505  0.00012613
   0.50000000  0.99990763  0.50069391
   0.50000000  0.50000402  0.01706098
   0.50000000  0.49992912  0.49798600
   0.50000000  0.25408393  0.50165700
   0.50000000  0.74600335  0.50165653
   0.00000003  0.99999824  0.75044579
   0.99999999  0.49999862  0.24828166
   0.00000002  0.50000200  0.75178027
   0.50000002  0.00000950  0.24183149
   0.49999997  0.00001009  0.75652036
   0.50000001  0.50000755  0.24475027
   0.24078545  0.99999999  0.00440452
   0.23811107  0.00000317  0.49446019
   0.24930019  0.49999988  0.99674793
   0.24350576  0.50000525  0.50293151
   0.75921454  0.99999999  0.00440443
   0.76188893  0.00000317  0.49446026
   0.75069981  0.49999988  0.99674789
   0.75649424  0.50000525  0.50293155
   0.99999999  0.24595011  0.00528419
   0.00000001  0.24609999  0.49492254
   0.99999999  0.75404994  0.00528568
   0.00000001  0.75390005  0.49491972
   0.50000001  0.25360089  0.99282880
   0.50000001  0.74640748  0.99282828
   0.99999997  0.00000103  0.24869312
   0.49999998  0.50001203  0.75839792
