LTO                                     
           1
     7.735973   -0.000679    0.002005
    -0.000650    7.686084    0.001340
     0.002013    0.001322    7.812061
   Ti   O    F 
   8   8  16
Direct configuration=     1
   0.00086620  0.00012513  0.97659666
   0.98649612  0.98790930  0.49610002
   0.97992865  0.49969838  0.00109138
   0.98473704  0.51214920  0.50077155
   0.49972833  0.00022733  0.99933825
   0.51045829  0.00085987  0.49946220
   0.50250635  0.50028682  0.02212274
   0.50710744  0.49994501  0.50097983
   0.75376160  0.00396967  0.49551317
   0.75332549  0.50062546  0.00081721
   0.75490472  0.49657038  0.50455370
   0.00664794  0.74971431  0.49658346
   0.49783534  0.24724003  0.50227192
   0.49750744  0.75360444  0.50221949
   0.99957490  0.00041303  0.75728723
   0.49703805  0.50037125  0.24345566
   0.25452498  0.99997636  0.00190092
   0.24782054  0.00437997  0.49472344
   0.24577971  0.50055534  0.99831739
   0.24611131  0.49582437  0.50583959
   0.74584881  0.99971658  0.00250483
   0.00547324  0.24917267  0.00454518
   0.01099338  0.25033909  0.49586230
   0.00556536  0.75050889  0.00514472
   0.49713217  0.24351108  0.99628100
   0.49694276  0.75699617  0.99618145
   0.00114196  0.00175823  0.23550987
   0.00939714  0.49628797  0.24411116
   0.00789760  0.49631630  0.75793866
   0.49866821  0.00022459  0.23632243
   0.49880041  0.00033121  0.76237043
   0.49547853  0.50039157  0.76328216
