       N       E                     dE             d eps       ncg     rms          rms(c)
DAV:   1    -0.213596852889E+03   -0.21360E+03   -0.65558E-01 20480   0.532E+00    0.690E-02
DAV:   2    -0.213596936062E+03   -0.83174E-04   -0.26605E-05 20288   0.265E-02    0.385E-02
DAV:   3    -0.213597027449E+03   -0.91387E-04   -0.17081E-05 19840   0.269E-02    0.575E-03
DAV:   4    -0.213597029237E+03   -0.17883E-05   -0.90540E-07 11584   0.816E-03    0.189E-03
DAV:   5    -0.213597029299E+03   -0.62249E-07   -0.32996E-07 10944   0.450E-03
   1 F= -.21359703E+03 E0= -.21359703E+03  d E =-.213597E+03  mag=    -0.0000
