 vasp.5.4.4.18Apr17-6-g9f103f2a35 (build Apr 30 2017 20:10:35) complex          
  
 executed on             LinuxIFC date 2017.08.04  10:08:18
 running on   64 total cores
 distrk:  each k-point on   64 cores,    1 groups
 distr:  one band on NCORES_PER_BAND=   8 cores,    8 groups


--------------------------------------------------------------------------------------------------------


 INCAR:
 POTCAR:   PAW_PBE Ti_pv 07Sep2000                
 POTCAR:   PAW_PBE O 08Apr2002                    
 POTCAR:    PAW_PBE F 08Apr2002                   
 POTCAR:   PAW_PBE Ti_pv 07Sep2000                
   VRHFIN =Ti: d3 s1                                                            
   LEXCH  = PE                                                                  
   EATOM  =  1042.3781 eV,   76.6126 Ry                                         
                                                                                
   TITEL  = PAW_PBE Ti_pv 07Sep2000                                             
   LULTRA =        F    use ultrasoft PP ?                                      
   IUNSCR =        1    unscreen: 0-lin 1-nonlin 2-no                           
   RPACOR =    2.200    partial core radius                                     
   POMASS =   47.880; ZVAL   =   10.000    mass and valenz                      
   RCORE  =    2.500    outmost cutoff radius                                   
   RWIGS  =    2.500; RWIGS  =    1.323    wigner-seitz radius (au A)           
   ENMAX  =  222.338; ENMIN  =  166.753 eV                                      
   RCLOC  =    1.701    cutoff for local pot                                    
   LCOR   =        T    correct aug charges                                     
   LPAW   =        T    paw PP                                                  
   EAUG   =  482.848                                                            
   DEXC   =    -.008                                                            
   RMAX   =    3.092    core radius for proj-oper                               
   RAUG   =    1.300    factor for augmentation sphere                          
   RDEP   =    2.538    radius for radial grids                                 
   QCUT   =   -4.042; QGAM   =    8.085    optimization parameters              
                                                                                
   Description                                                                  
     l     E      TYP  RCUT    TYP  RCUT                                        
     1   .000     23  2.300                                                     
     1  -.100     23  2.300                                                     
     2   .000     23  2.500                                                     
     2   .000     23  2.500                                                     
     0   .000     23  2.500                                                     
     0  1.500     23  2.500                                                     
     3   .000      7   .000                                                     
  local pseudopotential read in
  partial core-charges read in
  atomic valenz-charges read in
  non local Contribution for L=           1  read in
    real space projection operators read in
  non local Contribution for L=           1  read in
    real space projection operators read in
  non local Contribution for L=           2  read in
    real space projection operators read in
  non local Contribution for L=           2  read in
    real space projection operators read in
  non local Contribution for L=           0  read in
    real space projection operators read in
  non local Contribution for L=           0  read in
    real space projection operators read in
    PAW grid and wavefunctions read in
 
   number of l-projection  operators is LMAX  =           6
   number of lm-projection operators is LMMAX =          18
 
 POTCAR:   PAW_PBE O 08Apr2002                    
   VRHFIN =O: s2p4                                                              
   LEXCH  = PE                                                                  
   EATOM  =   432.3788 eV,   31.7789 Ry                                         
                                                                                
   TITEL  = PAW_PBE O 08Apr2002                                                 
   LULTRA =        F    use ultrasoft PP ?                                      
   IUNSCR =        0    unscreen: 0-lin 1-nonlin 2-no                           
   RPACOR =     .000    partial core radius                                     
   POMASS =   16.000; ZVAL   =    6.000    mass and valenz                      
   RCORE  =    1.520    outmost cutoff radius                                   
   RWIGS  =    1.550; RWIGS  =     .820    wigner-seitz radius (au A)           
   ENMAX  =  400.000; ENMIN  =  300.000 eV                                      
   ICORE  =        2    local potential                                         
   LCOR   =        T    correct aug charges                                     
   LPAW   =        T    paw PP                                                  
   EAUG   =  605.392                                                            
   DEXC   =     .000                                                            
   RMAX   =    2.264    core radius for proj-oper                               
   RAUG   =    1.300    factor for augmentation sphere                          
   RDEP   =    1.550    radius for radial grids                                 
   QCUT   =   -5.520; QGAM   =   11.041    optimization parameters              
                                                                                
   Description                                                                  
     l     E      TYP  RCUT    TYP  RCUT                                        
     0   .000     23  1.200                                                     
     0  -.700     23  1.200                                                     
     1   .000     23  1.520                                                     
     1   .600     23  1.520                                                     
     2   .000      7  1.500                                                     
  local pseudopotential read in
  atomic valenz-charges read in
  non local Contribution for L=           0  read in
    real space projection operators read in
  non local Contribution for L=           0  read in
    real space projection operators read in
  non local Contribution for L=           1  read in
    real space projection operators read in
  non local Contribution for L=           1  read in
    real space projection operators read in
    PAW grid and wavefunctions read in
 
   number of l-projection  operators is LMAX  =           4
   number of lm-projection operators is LMMAX =           8
 
 POTCAR:    PAW_PBE F 08Apr2002                   
   VRHFIN =F: s2p5                                                              
   LEXCH  = PE                                                                  
   EATOM  =   659.6475 eV,   48.4827 Ry                                         
                                                                                
   TITEL  = PAW_PBE F 08Apr2002                                                 
   LULTRA =        F    use ultrasoft PP ?                                      
   IUNSCR =        1    unscreen: 0-lin 1-nonlin 2-no                           
   RPACOR =    1.200    partial core radius                                     
   POMASS =   18.998; ZVAL   =    7.000    mass and valenz                      
   RCORE  =    1.520    outmost cutoff radius                                   
   RWIGS  =    1.500; RWIGS  =    0.794    wigner-seitz radius (au A)           
   ENMAX  =  400.000; ENMIN  =  300.000 eV                                      
   ICORE  =        2    local potential                                         
   LCOR   =        T    correct aug charges                                     
   LPAW   =        T    paw PP                                                  
   EAUG   =  613.614                                                            
   RMAX   =    1.555    core radius for proj-oper                               
   RAUG   =    1.300    factor for augmentation sphere                          
   RDEP   =    1.539    radius for radial grids                                 
   RDEPT  =    1.299    core radius for aug-charge                              
                                                                                
   Atomic configuration                                                         
    4 entries                                                                   
     n  l   j            E        occ.                                          
     1  0  0.50      -663.3661   2.0000                                         
     2  0  0.50       -29.8995   2.0000                                         
     2  1  0.50       -11.1114   5.0000                                         
     3  2  1.50       -10.8847   0.0000                                         
   Description                                                                  
     l       E           TYP  RCUT    TYP  RCUT                                 
     0    -29.8995018     23  1.200                                             
     0     -9.5240782     23  1.200                                             
     1    -11.1113914     23  1.520                                             
     1      1.3605826     23  1.520                                             
     2    -10.8846608      7  1.500                                             
  local pseudopotential read in
  partial core-charges read in
  partial kinetic energy density read in
  atomic valenz-charges read in
  non local Contribution for L=           0  read in
    real space projection operators read in
  non local Contribution for L=           0  read in
    real space projection operators read in
  non local Contribution for L=           1  read in
    real space projection operators read in
  non local Contribution for L=           1  read in
    real space projection operators read in
    PAW grid and wavefunctions read in
 
   number of l-projection  operators is LMAX  =           4
   number of lm-projection operators is LMMAX =           8
 
 Optimization of the real space projectors (new method)

 maximal supplied QI-value         = 15.12
 optimisation between [QCUT,QGAM] = [ 13.45, 27.06] = [ 50.69,205.06] Ry 
 Optimized for a Real-space Cutoff    1.49 Angstroem

   l    n(q)    QCUT    max X(q) W(low)/X(q) W(high)/X(q)  e(spline) 
   1     12    13.455     4.841    0.13E-05    0.83E-06    0.56E-07
   1     12    13.455     5.701    0.32E-04    0.25E-04    0.17E-06
   2     11    13.455     4.569    0.64E-05    0.34E-05    0.50E-07
   2     11    13.455    32.276    0.49E-04    0.38E-04    0.46E-06
   0     12    13.455    30.046    0.17E-04    0.41E-05    0.51E-07
   0     12    13.455    45.433    0.12E-04    0.27E-04    0.38E-06
 Optimization of the real space projectors (new method)

 maximal supplied QI-value         = 24.76
 optimisation between [QCUT,QGAM] = [ 13.37, 26.98] = [ 50.04,203.89] Ry 
 Optimized for a Real-space Cutoff    1.17 Angstroem

   l    n(q)    QCUT    max X(q) W(low)/X(q) W(high)/X(q)  e(spline) 
   0      9    13.368     4.192    0.20E-04    0.58E-05    0.56E-07
   0      9    13.368     8.473    0.60E-04    0.52E-04    0.21E-06
   1      9    13.368     2.474    0.22E-04    0.17E-04    0.28E-07
   1      9    13.368     3.912    0.94E-04    0.97E-04    0.20E-06
 Optimization of the real space projectors (new method)

 maximal supplied QI-value         = 24.76
 optimisation between [QCUT,QGAM] = [ 13.37, 26.98] = [ 50.04,203.89] Ry 
 Optimized for a Real-space Cutoff    1.17 Angstroem

   l    n(q)    QCUT    max X(q) W(low)/X(q) W(high)/X(q)  e(spline) 
   0      9    13.368    14.049    0.39E-04    0.34E-04    0.16E-06
   0      9    13.368     8.945    0.54E-04    0.47E-04    0.20E-06
   1      9    13.368     7.086    0.99E-04    0.10E-03    0.23E-06
   1      9    13.368     6.747    0.86E-04    0.89E-04    0.21E-06

 ----------------------------------------------------------------------------- 
|                                                                             |
|  ADVICE TO THIS USER RUNNING 'VASP/VAMP'   (HEAR YOUR MASTER'S VOICE ...):  |
|                                                                             |
|      You enforced a specific xc-type in the INCAR file,                     |
|      a different type was found on the POTCAR file                          |
|          I HOPE YOU KNOW, WHAT YOU ARE  DOING                               |
|                                                                             |
 ----------------------------------------------------------------------------- 

 PAW_PBE Ti_pv 07Sep2000                :
 energy of atom  1       EATOM=-1042.3781
 kinetic energy error for atom=    0.0006 (will be added to EATOM!!)
 PAW_PBE O 08Apr2002                    :
 energy of atom  2       EATOM= -432.3788
 kinetic energy error for atom=    0.0091 (will be added to EATOM!!)
  PAW_PBE F 08Apr2002                   :
 energy of atom  3       EATOM= -659.6475
 kinetic energy error for atom=    0.0140 (will be added to EATOM!!)
 
 
 POSCAR: TiOF2 2x2x2 config 0516                 
  positions in direct lattice
  velocities in cartesian coordinates
 exchange correlation table for  LEXCH =       14
   RHO(1)=    0.500       N(1)  =     2000
   RHO(2)=  100.500       N(2)  =     4000

 VTST: version 3.1, (03/28/14)

 CHAIN: initializing optimizer
 
 OPT: Using VASP QUASI-newton optimizer
 CHAIN: Read ICHAIN            0
 
 POSCAR: TiOF2 2x2x2 config 0516                 
  positions in direct lattice
  velocities in cartesian coordinates
 


--------------------------------------------------------------------------------------------------------


 ion  position               nearest neighbor table
   1  0.000  1.000  1.000-  26 1.84  24 1.84  21 1.86  17 1.86  29 1.93  28 1.93
   2  0.002  1.000  0.500-  27 1.84  25 1.84  18 1.86  22 1.86  28 1.93  29 1.93
   3  0.001  0.500  0.001-  14 1.87  15 1.88  19 1.94  23 1.95  24 1.99  26 1.99
   4  0.980  0.500  0.501-   9 1.78  15 1.99  14 1.99  27 2.00  25 2.00  20 2.08
   5  0.500  0.000  0.001-  10 1.84  12 1.84  30 1.92  31 1.93  17 2.08  21 2.08
   6  0.501  1.000  0.500-  13 1.84  11 1.84  30 1.93  31 1.94  18 2.07  22 2.08
   7  0.500  0.500  0.985-  16 1.80  12 1.99  10 1.99  19 2.00  23 2.00  32 2.03
   8  0.506  0.500  0.509-  16 1.87   9 1.96  11 1.99  13 1.99  32 2.02  20 2.07
   9  0.754  0.500  0.499-   4 1.78   8 1.96
  10  0.501  0.241  0.000-   5 1.84   7 1.99
  11  0.501  0.240  0.499-   6 1.84   8 1.99
  12  0.501  0.759  0.000-   5 1.84   7 1.99
  13  0.501  0.760  0.499-   6 1.84   8 1.99
  14  1.000  0.500  0.244-   3 1.87   4 1.99
  15  0.999  0.500  0.758-   3 1.88   4 1.99
  16  0.498  0.500  0.751-   7 1.80   8 1.87
  17  0.237  1.000  0.000-   1 1.86   5 2.08
  18  0.238  1.000  0.500-   2 1.86   6 2.07
  19  0.247  0.500  0.003-   3 1.94   7 2.00
  20  0.244  0.500  0.498-   8 2.07   4 2.08
  21  0.764  0.000  0.000-   1 1.86   5 2.08
  22  0.765  0.000  0.500-   2 1.86   6 2.08
  23  0.753  0.500  0.004-   3 1.95   7 2.00
  24  0.000  0.240  0.000-   1 1.84   3 1.99
  25  0.005  0.240  0.500-   2 1.84   4 2.00
  26  0.000  0.760  0.000-   1 1.84   3 1.99
  27  0.005  0.760  0.500-   2 1.84   4 2.00
  28  0.000  0.000  0.250-   1 1.93   2 1.93
  29  0.000  1.000  0.750-   1 1.93   2 1.93
  30  0.500  1.000  0.250-   5 1.92   6 1.93
  31  0.500  1.000  0.751-   5 1.93   6 1.94
  32  0.497  0.500  0.248-   8 2.02   7 2.03
 

IMPORTANT INFORMATION: All symmetrisations will be switched off!
NOSYMM: (Re-)initialisation of all symmetry stuff for point group C_1.

 
 
 KPOINTS: Title                                   

Automatic generation of k-mesh.
Space group operators:
 irot       det(A)        alpha          n_x          n_y          n_z        tau_x        tau_y        tau_z
    1     1.000000     0.000000     1.000000     0.000000     0.000000     0.000000     0.000000     0.000000
 
 Subroutine IBZKPT returns following result:
 ===========================================
 
 Found      4 irreducible k-points:
 
 Following reciprocal coordinates:
            Coordinates               Weight
  0.250000  0.250000  0.250000      2.000000
 -0.250000  0.250000  0.250000      2.000000
  0.250000 -0.250000  0.250000      2.000000
 -0.250000 -0.250000  0.250000      2.000000
 
 Following cartesian coordinates:
            Coordinates               Weight
  0.031735  0.032674  0.032377      2.000000
 -0.031731  0.032674  0.032375      2.000000
  0.031735 -0.032674  0.032377      2.000000
 -0.031731 -0.032674  0.032374      2.000000
 


--------------------------------------------------------------------------------------------------------




 Dimension of arrays:
   k-points           NKPTS =      4   k-points in BZ     NKDIM =      4   number of bands    NBANDS=    160
   number of dos      NEDOS =   3001   number of ions     NIONS =     32
   non local maximal  LDIM  =      6   non local SUM 2l+1 LMDIM =     18
   total plane-waves  NPLWV = 343000
   max r-space proj   IRMAX =  10217   max aug-charges    IRDMAX= 229049
   dimension x,y,z NGX =    70 NGY =   70 NGZ =   70
   dimension x,y,z NGXF=   140 NGYF=  140 NGZF=  140
   support grid    NGXF=   280 NGYF=  280 NGZF=  280
   ions per type =               8   8  16
   NGX,Y,Z   is equivalent  to a cutoff of  14.77, 15.21, 15.07 a.u.
   NGXF,Y,Z  is equivalent  to a cutoff of  29.54, 30.42, 30.14 a.u.

 SYSTEM =  LTO                                     
 POSCAR =  TiOF2 2x2x2 config 0516                 

 Startparameter for this run:
   NWRITE =      2    write-flag & timer
   PREC   = accura    normal or accurate (medium, high low for compatibility)
   ISTART =      1    job   : 0-new  1-cont  2-samecut
   ICHARG =      0    charge: 1-file 2-atom 10-const
   ISPIN  =      2    spin polarized calculation?
   LNONCOLLINEAR =      F non collinear calculations
   LSORBIT =      F    spin-orbit coupling
   INIWAV =      1    electr: 0-lowe 1-rand  2-diag
   LASPH  =      T    aspherical Exc in radial PAW
   METAGGA=      F    non-selfconsistent MetaGGA calc.

 Electronic Relaxation 1
   ENCUT  =  700.0 eV  51.45 Ry    7.17 a.u.  17.00 16.51 16.66*2*pi/ulx,y,z
   ENINI  =  700.0     initial cutoff
   ENAUG  =  613.6 eV  augmentation charge cutoff
   NELM   =     60;   NELMIN=  2; NELMDL=  0     # of ELM steps 
   EDIFF  = 0.1E-05   stopping-criterion for ELM
   LREAL  =      T    real-space projection
   NLSPLINE    = F    spline interpolate recip. space projectors
   LCOMPAT=      F    compatible to vasp.4.4
   GGA_COMPAT  = T    GGA compatible to vasp.4.4-vasp.4.6
   LMAXPAW     = -100 max onsite density
   LMAXMIX     =    4 max onsite mixed and CHGCAR
   VOSKOWN=      0    Vosko Wilk Nusair interpolation
   ROPT   =   -0.00010  -0.00010  -0.00010
 Ionic relaxation
   EDIFFG = -.1E-01   stopping-criterion for IOM
   NSW    =    100    number of steps for IOM
   NBLOCK =      1;   KBLOCK =    100    inner block; outer block 
   IBRION =      1    ionic relax: 0-MD 1-quasi-New 2-CG
   NFREE  =      0    steps in history (QN), initial steepest desc. (CG)
   ISIF   =      3    stress and relaxation
   IWAVPR =     11    prediction:  0-non 1-charg 2-wave 3-comb
   ISYM   =      0    0-nonsym 1-usesym 2-fastsym
   LCORR  =      T    Harris-Foulkes like correction to forces

   POTIM  = 0.5000    time-step for ionic-motion
   TEIN   =    0.0    initial temperature
   TEBEG  =    0.0;   TEEND  =   0.0 temperature during run
   SMASS  =  -3.00    Nose mass-parameter (am)
   estimated Nose-frequenzy (Omega)   =  0.10E-29 period in steps =****** mass=  -0.142E-26a.u.
   SCALEE = 1.0000    scale energy and forces
   NPACO  =    256;   APACO  = 16.0  distance and # of slots for P.C.
   PSTRESS=    0.0 pullay stress

  Mass of Ions in am
   POMASS =  47.88 16.00 19.00
  Ionic Valenz
   ZVAL   =  10.00  6.00  7.00
  Atomic Wigner-Seitz radii
   RWIGS  =  -1.00 -1.00 -1.00
  virtual crystal weights 
   VCA    =   1.00  1.00  1.00
   NELECT =     240.0000    total number of electrons
   NUPDOWN=      -1.0000    fix difference up-down

 DOS related values:
   EMIN   =  10.00;   EMAX   =-10.00  energy-range for DOS
   EFERMI =   0.00
   ISMEAR =     0;   SIGMA  =   0.01  broadening in eV -4-tet -1-fermi 0-gaus

 Electronic relaxation 2 (details)
   IALGO  =     38    algorithm
   LDIAG  =      T    sub-space diagonalisation (order eigenvalues)
   LSUBROT=      F    optimize rotation matrix (better conditioning)
   TURBO    =      0    0=normal 1=particle mesh
   IRESTART =      0    0=no restart 2=restart with 2 vectors
   NREBOOT  =      0    no. of reboots
   NMIN     =      0    reboot dimension
   EREF     =   0.00    reference energy to select bands
   IMIX   =      4    mixing-type and parameters
     AMIX     =   0.40;   BMIX     =  1.00
     AMIX_MAG =   1.60;   BMIX_MAG =  1.00
     AMIN     =   0.10
     WC   =   100.;   INIMIX=   1;  MIXPRE=   1;  MAXMIX= -45

 Intra band minimization:
   WEIMIN = 0.0010     energy-eigenvalue tresh-hold
   EBREAK =  0.16E-08  absolut break condition
   DEPER  =   0.30     relativ break condition  

   TIME   =   0.40     timestep for ELM

  volume/ion in A,a.u.               =      14.55        98.16
  Fermi-wavevector in a.u.,A,eV,Ry     =   1.312752  2.480742 23.447168  1.723318
  Thomas-Fermi vector in A             =   2.443123
 
 Write flags
   LWAVE        =      T    write WAVECAR
   LDOWNSAMPLE  =      F    k-point downsampling of WAVECAR
   LCHARG       =      T    write CHGCAR
   LVTOT        =      F    write LOCPOT, total local potential
   LVHAR        =      F    write LOCPOT, Hartree potential only
   LELF         =      F    write electronic localiz. function (ELF)
   LORBIT       =     11    0 simple, 1 ext, 2 COOP (PROOUT), +10 PAW based schemes


 Dipole corrections
   LMONO  =      F    monopole corrections only (constant potential shift)
   LDIPOL =      F    correct potential (dipole corrections)
   IDIPOL =      0    1-x, 2-y, 3-z, 4-all directions 
   EPSILON=  1.0000000 bulk dielectric constant

 LDA+U is selected, type is set to LDAUTYPE =  2
   angular momentum for each species LDAUL =     2   -1   -1
   U (eV)           for each species LDAUU =   4.2  0.0  0.0
   J (eV)           for each species LDAUJ =   0.0  0.0  0.0
 Exchange correlation treatment:
   GGA     =    PS    GGA type
   LEXCH   =    14    internal setting for exchange type
   VOSKOWN=      0    Vosko Wilk Nusair interpolation
   LHFCALC =     F    Hartree Fock is set to
   LHFONE  =     F    Hartree Fock one center treatment
   AEXX    =    0.0000 exact exchange contribution

 Linear response parameters
   LEPSILON=     F    determine dielectric tensor
   LRPA    =     F    only Hartree local field effects (RPA)
   LNABLA  =     F    use nabla operator in PAW spheres
   LVEL    =     F    velocity operator in full k-point grid
   LINTERFAST=   F  fast interpolation
   KINTER  =     0    interpolate to denser k-point grid
   CSHIFT  =0.1000    complex shift for real part using Kramers Kronig
   OMEGAMAX=  -1.0    maximum frequency
   DEG_THRESHOLD= 0.2000000E-02 threshold for treating states as degnerate
   RTIME   =   -0.100 relaxation time in fs
  (WPLASMAI=    0.000 imaginary part of plasma frequency in eV, 0.658/RTIME)
   DFIELD  = 0.0000000 0.0000000 0.0000000 field for delta impulse in time
 
 Orbital magnetization related:
   ORBITALMAG=     F  switch on orbital magnetization
   LCHIMAG   =     F  perturbation theory with respect to B field
   DQ        =  0.001000  dq finite difference perturbation B field
   LLRAUG    =     F  two centre corrections for induced B field



--------------------------------------------------------------------------------------------------------


 quasi-Newton-method for relaxation of ions
 charge density and potential will be updated during run
 spin polarized calculation
 Variant of blocked Davidson
 Davidson routine will perform the subspace rotation
 perform sub-space diagonalisation
    after iterative eigenvector-optimisation
 modified Broyden-mixing scheme, WC =      100.0
 initial mixing is a Kerker type mixing with AMIX =  0.4000 and BMIX =      1.0000
 Hartree-type preconditioning will be used
 using additional bands           40
 real space projection scheme for non local part
 use partial core corrections
 calculate Harris-corrections to forces 
   (improved forces if not selfconsistent)
 use gradient corrections 
 use of overlap-Matrix (Vanderbilt PP)
 Gauss-broadening in eV      SIGMA  =   0.01


--------------------------------------------------------------------------------------------------------


  energy-cutoff  :      700.00
  volume of cell :      465.47
      direct lattice vectors                 reciprocal lattice vectors
     7.878261730  0.000004960 -0.000512761     0.126931554 -0.000000174  0.000005795
     0.000010472  7.651378591 -0.000007195    -0.000000082  0.130695402  0.000000125
    -0.000352518 -0.000007406  7.721779793     0.000008429  0.000000122  0.129503823

  length of vectors
     7.878261747  7.651378592  7.721779801     0.126931554  0.130695402  0.129503823


 
 old parameters found on file WAVECAR:
  energy-cutoff  :      700.00
  volume of cell :      438.28
      direct lattice vectors                 reciprocal lattice vectors
     7.596000000  0.000000000  0.000000000     0.131648236  0.000000000  0.000000000
     0.000000000  7.596000000  0.000000000     0.000000000  0.131648236  0.000000000
     0.000000000  0.000000000  7.596000000     0.000000000  0.000000000  0.131648236

  length of vectors

 
 k-points in units of 2pi/SCALE and weight: Title                                   
   0.03173498  0.03267384  0.03237744       0.250
  -0.03173080  0.03267392  0.03237454       0.250
   0.03173502 -0.03267386  0.03237737       0.250
  -0.03173076 -0.03267378  0.03237448       0.250
 
 k-points in reciprocal lattice and weights: Title                                   
   0.25000000  0.25000000  0.25000000       0.250
  -0.25000000  0.25000000  0.25000000       0.250
   0.25000000 -0.25000000  0.25000000       0.250
  -0.25000000 -0.25000000  0.25000000       0.250
 
 position of ions in fractional coordinates (direct lattice) 
   0.00006287  0.99998373  0.99993800
   0.00185336  0.99999818  0.49989629
   0.00071562  0.50000380  0.00126241
   0.98018527  0.50000089  0.50076013
   0.50009284  0.00001515  0.00054246
   0.50083417  0.99999413  0.49984273
   0.50018269  0.50002990  0.98462666
   0.50612961  0.49999266  0.50890993
   0.75446102  0.49999812  0.49893881
   0.50058253  0.24097882  0.00022280
   0.50087006  0.24035861  0.49913850
   0.50058395  0.75901543  0.00022091
   0.50087061  0.75963857  0.49913859
   0.99973369  0.49999879  0.24360132
   0.99949375  0.49999962  0.75750150
   0.49820754  0.49999813  0.75140006
   0.23667739  0.99999897  0.00013700
   0.23822492  0.99999971  0.50005247
   0.24742303  0.49999807  0.00341735
   0.24402539  0.49999936  0.49807873
   0.76354075  0.00000023  0.00016404
   0.76515836  0.00000050  0.50008141
   0.75290414  0.49999631  0.00406807
   0.00021135  0.24017637  0.00003459
   0.00504217  0.23981608  0.50014845
   0.00020905  0.75983530  0.00003602
   0.00504143  0.76018483  0.50014723
   0.00008367  0.00000071  0.24952672
   0.00007659  0.99999966  0.75042404
   0.49981673  0.99999557  0.24964834
   0.49991791  0.99999724  0.75053112
   0.49678753  0.49999656  0.24756333
 
 position of ions in cartesian coordinates  (Angst):
   0.00015328  7.65124668  7.72129378
   0.01443551  7.65136101  3.86008096
   0.00564267  3.82571834  0.00974411
   7.72198482  3.82569729  3.86625323
   3.93986205  0.00011842  0.00393231
   3.94553696  7.65133250  3.85941151
   3.94022826  3.82591326  7.60281018
   3.98724737  3.82563187  3.92942727
   5.94367073  3.82567495  3.85230513
   3.94372266  1.84382270  0.00146197
   3.94581201  1.83907354  3.85397901
   3.94373925  5.80751689  0.00144365
   3.94582180  5.81228106  3.85397600
   7.87608304  3.82568316  1.88051955
   7.87401157  3.82568571  5.84874365
   3.92474974  3.82567187  5.80188678
   1.86461683  7.65137188  0.00092932
   1.87663244  7.65137387  3.86116571
   1.94926740  3.82567576  0.02625754
   1.92232554  3.82568189  3.84592552
   6.01537378  0.00000553  0.00087518
   6.02794153  0.00000395  3.86112621
   5.93157969  3.82566480  0.03102308
   0.00166758  1.83768030  0.00026528
   0.03954970  1.83491995  3.86203187
   0.00165492  5.81378753  0.00027256
   0.03954936  5.81645825  3.86201872
   0.00057122  0.00000361  1.92679037
   0.00034934  7.65137040  5.79460196
   3.93760949  7.65134530  1.92746605
   3.93823005  7.65135439  5.79517248
   3.91374017  3.82566360  1.91137118
 


--------------------------------------------------------------------------------------------------------


 k-point  1 :   0.2500 0.2500 0.2500  plane waves:   19594
 k-point  2 :  -0.2500 0.2500 0.2500  plane waves:   19594
 k-point  3 :   0.2500-0.2500 0.2500  plane waves:   19594
 k-point  4 :  -0.2500-0.2500 0.2500  plane waves:   19594

 maximum and minimum number of plane-waves per node :      2466     2428

 maximum number of plane-waves:     19594
 maximum index in each direction: 
   IXMAX=   17   IYMAX=   16   IZMAX=   16
   IXMIN=  -17   IYMIN=  -16   IZMIN=  -16


 real space projection operators:
  total allocation   :      18382.59 KBytes
  max/ min on nodes  :       2442.03       1911.33


 parallel 3D FFT for wavefunctions:
    minimum data exchange during FFTs selected (reduces bandwidth)
 parallel 3D FFT for charge:
    minimum data exchange during FFTs selected (reduces bandwidth)


 total amount of memory used by VASP MPI-rank0    62300. kBytes
=======================================================================

   base      :      30000. kBytes
   nonlr-proj:       8520. kBytes
   fftplans  :       8422. kBytes
   grid      :       8783. kBytes
   one-center:        124. kBytes
   wavefun   :       6451. kBytes
 
     INWAV:  cpu time    3.7484: real time    3.9507
 Broyden mixing: mesh for mixing (old mesh)
   NGX = 33   NGY = 33   NGZ = 33
  (NGX  =140   NGY  =140   NGZ  =140)
  gives a total of  35937 points

 charge density for first step will be calculated from the start-wavefunctions


--------------------------------------------------------------------------------------------------------


 Maximum index for non-local projection operator         1370
 Maximum index for augmentation-charges         7782 (set IRDMAX)


--------------------------------------------------------------------------------------------------------


 initial charge from wavefunction
 First call to EWALD:  gamma=   0.229
 Maximum number of real-space cells 3x 3x 3
 Maximum number of reciprocal cells 3x 3x 3

    FEWALD:  cpu time    0.0040: real time    0.0033


--------------------------------------- Iteration      1(   1)  ---------------------------------------


    POTLOK:  cpu time    0.1530: real time    0.2724
    SETDIJ:  cpu time    0.8349: real time    0.8401
     EDDAV:  cpu time    3.5055: real time    3.5362
       DOS:  cpu time    0.0010: real time    0.0008
    CHARGE:  cpu time    0.3699: real time    0.3800
    MIXING:  cpu time    0.0020: real time    0.0019
    --------------------------------------------
      LOOP:  cpu time    4.8663: real time    5.0314

 eigenvalue-minimisations  :  2560
 total energy-change (2. order) :-0.2084629E+03  (-0.7900798E-01)
 number of electron     240.0000004 magnetization       0.0000000
 augmentation part       61.9532832 magnetization      -0.0000000

 Broyden mixing:
  rms(total) = 0.81131E-02    rms(broyden)= 0.75673E-02
  rms(prec ) = 0.79713E-02
  weight for this iteration     100.00

 Free energy of the ion-electron system (eV)
  ---------------------------------------------------
  alpha Z        PSCENC =       752.29226493
  Ewald energy   TEWEN  =    -12674.55342064
  -Hartree energ DENC   =     -8325.18685422
  -exchange      EXHF   =         0.00000000
  -V(xc)+E(xc)   XCENC  =      1119.05648051
  PAW double counting   =     17987.69215867   -18110.34941423
  entropy T*S    EENTRO =        -0.00000000
  eigenvalues    EBANDS =     -3259.76732549
  atomic energy  EATOM  =     22302.35321627
  Solvation  Ediel_sol  =         0.00000000
  ---------------------------------------------------
  free energy    TOTEN  =      -208.46289420 eV

  energy without entropy =     -208.46289420  energy(sigma->0) =     -208.46289420


--------------------------------------------------------------------------------------------------------




--------------------------------------- Iteration      1(   2)  ---------------------------------------


    POTLOK:  cpu time    0.1380: real time    0.1694
    SETDIJ:  cpu time    0.8449: real time    0.8426
     EDDAV:  cpu time    3.6994: real time    3.6978
       DOS:  cpu time    0.0010: real time    0.0009
    CHARGE:  cpu time    0.3859: real time    0.3846
    MIXING:  cpu time    0.0110: real time    0.0105
    --------------------------------------------
      LOOP:  cpu time    5.0802: real time    5.1057

 eigenvalue-minimisations  :  2688
 total energy-change (2. order) :-0.1107332E-03  (-0.3887193E-05)
 number of electron     240.0000004 magnetization      -0.0000000
 augmentation part       61.9535555 magnetization       0.0000000

 Broyden mixing:
  rms(total) = 0.45353E-02    rms(broyden)= 0.44979E-02
  rms(prec ) = 0.47635E-02
  weight for this iteration     100.00

 eigenvalues of (default mixing * dielectric matrix)
  average eigenvalue GAMMA=   2.2126
  2.2126

 Free energy of the ion-electron system (eV)
  ---------------------------------------------------
  alpha Z        PSCENC =       752.29226493
  Ewald energy   TEWEN  =    -12674.55342064
  -Hartree energ DENC   =     -8325.11844408
  -exchange      EXHF   =         0.00000000
  -V(xc)+E(xc)   XCENC  =      1119.05182159
  PAW double counting   =     17988.53841448   -18111.17721327
  entropy T*S    EENTRO =        -0.00000000
  eigenvalues    EBANDS =     -3259.84964422
  atomic energy  EATOM  =     22302.35321627
  Solvation  Ediel_sol  =         0.00000000
  ---------------------------------------------------
  free energy    TOTEN  =      -208.46300493 eV

  energy without entropy =     -208.46300493  energy(sigma->0) =     -208.46300493


--------------------------------------------------------------------------------------------------------




--------------------------------------- Iteration      1(   3)  ---------------------------------------


    POTLOK:  cpu time    0.1560: real time    0.1757
    SETDIJ:  cpu time    0.8409: real time    0.8392
     EDDAV:  cpu time    4.2853: real time    4.2826
       DOS:  cpu time    0.0010: real time    0.0009
    CHARGE:  cpu time    0.3839: real time    0.3818
    MIXING:  cpu time    0.0030: real time    0.0026
    --------------------------------------------
      LOOP:  cpu time    5.6701: real time    5.6827

 eigenvalue-minimisations  :  3136
 total energy-change (2. order) :-0.1233796E-03  (-0.2514905E-05)
 number of electron     240.0000004 magnetization      -0.0000000
 augmentation part       61.9553815 magnetization       0.0000000

 Broyden mixing:
  rms(total) = 0.15694E-02    rms(broyden)= 0.15644E-02
  rms(prec ) = 0.23282E-02
  weight for this iteration     100.00

 eigenvalues of (default mixing * dielectric matrix)
  average eigenvalue GAMMA=   1.5186
  2.4393  0.5979

 Free energy of the ion-electron system (eV)
  ---------------------------------------------------
  alpha Z        PSCENC =       752.29226493
  Ewald energy   TEWEN  =    -12674.55342064
  -Hartree energ DENC   =     -8325.14611071
  -exchange      EXHF   =         0.00000000
  -V(xc)+E(xc)   XCENC  =      1119.05571008
  PAW double counting   =     17989.57124846   -18112.19785910
  entropy T*S    EENTRO =        -0.00000000
  eigenvalues    EBANDS =     -3259.83817761
  atomic energy  EATOM  =     22302.35321627
  Solvation  Ediel_sol  =         0.00000000
  ---------------------------------------------------
  free energy    TOTEN  =      -208.46312831 eV

  energy without entropy =     -208.46312831  energy(sigma->0) =     -208.46312831


--------------------------------------------------------------------------------------------------------




--------------------------------------- Iteration      1(   4)  ---------------------------------------


    POTLOK:  cpu time    0.1530: real time    0.1975
    SETDIJ:  cpu time    0.8419: real time    0.8416
     EDDAV:  cpu time    3.9464: real time    3.9461
       DOS:  cpu time    0.0010: real time    0.0009
    CHARGE:  cpu time    0.3819: real time    0.3815
    MIXING:  cpu time    0.0030: real time    0.0025
    --------------------------------------------
      LOOP:  cpu time    5.3272: real time    5.3701

 eigenvalue-minimisations  :  2784
 total energy-change (2. order) :-0.2172997E-05  (-0.7212686E-06)
 number of electron     240.0000004 magnetization      -0.0000000
 augmentation part       61.9541360 magnetization       0.0000000

 Broyden mixing:
  rms(total) = 0.30016E-03    rms(broyden)= 0.29876E-03
  rms(prec ) = 0.38814E-03
  weight for this iteration     100.00

 eigenvalues of (default mixing * dielectric matrix)
  average eigenvalue GAMMA=   1.3565
  2.4972  1.0706  0.5018

 Free energy of the ion-electron system (eV)
  ---------------------------------------------------
  alpha Z        PSCENC =       752.29226493
  Ewald energy   TEWEN  =    -12674.55342064
  -Hartree energ DENC   =     -8325.17144677
  -exchange      EXHF   =         0.00000000
  -V(xc)+E(xc)   XCENC  =      1119.05570443
  PAW double counting   =     17989.76067032   -18112.38141591
  entropy T*S    EENTRO =        -0.00000000
  eigenvalues    EBANDS =     -3259.81870312
  atomic energy  EATOM  =     22302.35321627
  Solvation  Ediel_sol  =         0.00000000
  ---------------------------------------------------
  free energy    TOTEN  =      -208.46313049 eV

  energy without entropy =     -208.46313049  energy(sigma->0) =     -208.46313049


--------------------------------------------------------------------------------------------------------




--------------------------------------- Iteration      1(   5)  ---------------------------------------


    POTLOK:  cpu time    0.1360: real time    0.1782
    SETDIJ:  cpu time    0.8429: real time    0.8409
     EDDAV:  cpu time    2.3966: real time    2.3963
       DOS:  cpu time    0.0010: real time    0.0008
    --------------------------------------------
      LOOP:  cpu time    3.3765: real time    3.4161

 eigenvalue-minimisations  :  1376
 total energy-change (2. order) :-0.3592177E-06  (-0.6806183E-07)
 number of electron     240.0000004 magnetization      -0.0000000
 augmentation part       61.9541360 magnetization       0.0000000

 Free energy of the ion-electron system (eV)
  ---------------------------------------------------
  alpha Z        PSCENC =       752.29226493
  Ewald energy   TEWEN  =    -12674.55342064
  -Hartree energ DENC   =     -8325.18340744
  -exchange      EXHF   =         0.00000000
  -V(xc)+E(xc)   XCENC  =      1119.05650167
  PAW double counting   =     17989.72950881   -18112.35039816
  entropy T*S    EENTRO =        -0.00000000
  eigenvalues    EBANDS =     -3259.80739627
  atomic energy  EATOM  =     22302.35321627
  Solvation  Ediel_sol  =         0.00000000
  ---------------------------------------------------
  free energy    TOTEN  =      -208.46313085 eV

  energy without entropy =     -208.46313085  energy(sigma->0) =     -208.46313085


--------------------------------------------------------------------------------------------------------




 average (electrostatic) potential at core
  the test charge radii are     1.0397  0.7215  0.7167
  (the norm of the test charge is              1.0000)
       1 -61.2673       2 -61.1511       3 -58.4834       4 -58.0074       5 -58.2392
       6 -58.0847       7 -57.8242       8 -57.6804       9 -73.2607      10 -72.8161
      11 -72.6911      12 -72.8158      13 -72.6912      14 -72.9916      15 -72.9759
      16 -73.0300      17 -80.5431      18 -80.4187      19 -78.7239      20 -77.4950
      21 -80.5463      22 -80.4080      23 -78.6862      24 -80.8854      25 -80.6747
      26 -80.8883      27 -80.6751      28 -81.3925      29 -81.3870      30 -79.2303
      31 -79.1767      32 -77.5301
 
 
 
 E-fermi :   0.3540     XC(G=0):  -8.9539     alpha+bet : -7.5915


 spin component 1

 k-point     1 :       0.2500    0.2500    0.2500
  band No.  band energies     occupation 
      1     -37.2536      1.00000
      2     -37.2285      1.00000
      3     -37.1794      1.00000
      4     -37.1263      1.00000
      5     -37.0987      1.00000
      6     -37.0513      1.00000
      7     -34.7060      1.00000
      8     -34.4988      1.00000
      9     -34.4282      1.00000
     10     -34.3945      1.00000
     11     -34.2688      1.00000
     12     -34.2333      1.00000
     13     -34.2052      1.00000
     14     -34.0221      1.00000
     15     -33.8726      1.00000
     16     -33.8294      1.00000
     17     -33.7839      1.00000
     18     -33.7277      1.00000
     19     -33.6556      1.00000
     20     -33.6297      1.00000
     21     -33.5486      1.00000
     22     -33.5281      1.00000
     23     -33.5105      1.00000
     24     -33.3755      1.00000
     25     -25.2584      1.00000
     26     -24.8557      1.00000
     27     -24.7119      1.00000
     28     -24.5132      1.00000
     29     -24.3143      1.00000
     30     -24.2090      1.00000
     31     -24.1766      1.00000
     32     -23.9886      1.00000
     33     -23.9124      1.00000
     34     -23.7800      1.00000
     35     -23.0444      1.00000
     36     -22.6498      1.00000
     37     -22.4966      1.00000
     38     -22.1783      1.00000
     39     -21.2133      1.00000
     40     -21.1017      1.00000
     41     -15.8261      1.00000
     42     -15.7010      1.00000
     43     -15.6288      1.00000
     44     -15.4779      1.00000
     45     -15.3928      1.00000
     46     -15.1876      1.00000
     47     -14.9918      1.00000
     48     -14.8427      1.00000
     49      -8.8594      1.00000
     50      -8.3008      1.00000
     51      -8.0559      1.00000
     52      -7.8274      1.00000
     53      -7.6937      1.00000
     54      -7.6528      1.00000
     55      -7.2663      1.00000
     56      -7.1560      1.00000
     57      -6.9828      1.00000
     58      -6.8281      1.00000
     59      -6.7661      1.00000
     60      -6.6955      1.00000
     61      -6.5810      1.00000
     62      -6.5538      1.00000
     63      -6.4337      1.00000
     64      -6.3565      1.00000
     65      -6.1959      1.00000
     66      -5.9662      1.00000
     67      -5.8743      1.00000
     68      -5.6760      1.00000
     69      -5.5778      1.00000
     70      -5.5361      1.00000
     71      -5.5276      1.00000
     72      -5.4502      1.00000
     73      -5.3991      1.00000
     74      -5.3041      1.00000
     75      -5.2821      1.00000
     76      -5.1341      1.00000
     77      -5.0795      1.00000
     78      -5.0124      1.00000
     79      -4.9697      1.00000
     80      -4.9541      1.00000
     81      -4.7167      1.00000
     82      -4.6918      1.00000
     83      -4.6274      1.00000
     84      -4.5600      1.00000
     85      -4.3544      1.00000
     86      -4.1869      1.00000
     87      -4.1442      1.00000
     88      -4.1137      1.00000
     89      -4.0740      1.00000
     90      -3.8745      1.00000
     91      -3.7692      1.00000
     92      -3.7036      1.00000
     93      -3.5470      1.00000
     94      -3.4073      1.00000
     95      -3.4034      1.00000
     96      -2.9527      1.00000
     97      -2.8378      1.00000
     98      -2.7227      1.00000
     99      -2.6374      1.00000
    100      -2.4856      1.00000
    101      -2.2461      1.00000
    102      -1.8942      1.00000
    103      -1.6664      1.00000
    104      -1.6529      1.00000
    105      -1.3778      1.00000
    106      -1.3130      1.00000
    107      -1.2398      1.00000
    108      -1.1872      1.00000
    109      -1.0108      1.00000
    110      -0.9885      1.00000
    111      -0.8568      1.00000
    112      -0.8389      1.00000
    113      -0.7536      1.00000
    114      -0.5698      1.00000
    115      -0.5062      1.00000
    116      -0.4397      1.00000
    117      -0.2013      1.00000
    118      -0.1717      1.00000
    119       0.0822      1.00000
    120       0.3007      1.00000
    121       0.5060      0.00000
    122       0.5140      0.00000
    123       0.9043      0.00000
    124       1.0313      0.00000
    125       1.0509      0.00000
    126       1.0556      0.00000
    127       1.6642      0.00000
    128       2.5963      0.00000
    129       2.7485      0.00000
    130       2.7792      0.00000
    131       2.8564      0.00000
    132       2.9493      0.00000
    133       3.0957      0.00000
    134       3.1229      0.00000
    135       3.2374      0.00000
    136       3.2568      0.00000
    137       3.2969      0.00000
    138       3.4109      0.00000
    139       3.7933      0.00000
    140       3.8768      0.00000
    141       3.9635      0.00000
    142       4.0617      0.00000
    143       4.0819      0.00000
    144       4.2086      0.00000
    145       4.4096      0.00000
    146       4.4309      0.00000
    147       4.4756      0.00000
    148       4.6703      0.00000
    149       4.7050      0.00000
    150       4.7366      0.00000
    151       4.8135      0.00000
    152       4.8339      0.00000
    153       4.9749      0.00000
    154       5.0675      0.00000
    155       5.4409      0.00000
    156       5.7126      0.00000
    157       6.1638      0.00000
    158       6.2811      0.00000
    159       6.6828      0.00000
    160       7.1339      0.00000

 k-point     2 :      -0.2500    0.2500    0.2500
  band No.  band energies     occupation 
      1     -37.2536      1.00000
      2     -37.2285      1.00000
      3     -37.1794      1.00000
      4     -37.1263      1.00000
      5     -37.0987      1.00000
      6     -37.0513      1.00000
      7     -34.7060      1.00000
      8     -34.4988      1.00000
      9     -34.4282      1.00000
     10     -34.3945      1.00000
     11     -34.2688      1.00000
     12     -34.2333      1.00000
     13     -34.2052      1.00000
     14     -34.0221      1.00000
     15     -33.8726      1.00000
     16     -33.8294      1.00000
     17     -33.7839      1.00000
     18     -33.7277      1.00000
     19     -33.6556      1.00000
     20     -33.6297      1.00000
     21     -33.5486      1.00000
     22     -33.5281      1.00000
     23     -33.5105      1.00000
     24     -33.3755      1.00000
     25     -25.2584      1.00000
     26     -24.8556      1.00000
     27     -24.7119      1.00000
     28     -24.5132      1.00000
     29     -24.3143      1.00000
     30     -24.2090      1.00000
     31     -24.1766      1.00000
     32     -23.9886      1.00000
     33     -23.9124      1.00000
     34     -23.7800      1.00000
     35     -23.0444      1.00000
     36     -22.6498      1.00000
     37     -22.4966      1.00000
     38     -22.1783      1.00000
     39     -21.2133      1.00000
     40     -21.1017      1.00000
     41     -15.8255      1.00000
     42     -15.7017      1.00000
     43     -15.6297      1.00000
     44     -15.4765      1.00000
     45     -15.3928      1.00000
     46     -15.1880      1.00000
     47     -14.9918      1.00000
     48     -14.8427      1.00000
     49      -8.8594      1.00000
     50      -8.3008      1.00000
     51      -8.0559      1.00000
     52      -7.8275      1.00000
     53      -7.6938      1.00000
     54      -7.6527      1.00000
     55      -7.2663      1.00000
     56      -7.1560      1.00000
     57      -6.9828      1.00000
     58      -6.8281      1.00000
     59      -6.7662      1.00000
     60      -6.6955      1.00000
     61      -6.5811      1.00000
     62      -6.5538      1.00000
     63      -6.4337      1.00000
     64      -6.3565      1.00000
     65      -6.1959      1.00000
     66      -5.9662      1.00000
     67      -5.8742      1.00000
     68      -5.6760      1.00000
     69      -5.5775      1.00000
     70      -5.5345      1.00000
     71      -5.5292      1.00000
     72      -5.4503      1.00000
     73      -5.3988      1.00000
     74      -5.3045      1.00000
     75      -5.2821      1.00000
     76      -5.1341      1.00000
     77      -5.0794      1.00000
     78      -5.0116      1.00000
     79      -4.9693      1.00000
     80      -4.9550      1.00000
     81      -4.7153      1.00000
     82      -4.6922      1.00000
     83      -4.6263      1.00000
     84      -4.5564      1.00000
     85      -4.3587      1.00000
     86      -4.1866      1.00000
     87      -4.1547      1.00000
     88      -4.1142      1.00000
     89      -4.0735      1.00000
     90      -3.8746      1.00000
     91      -3.7690      1.00000
     92      -3.6945      1.00000
     93      -3.5436      1.00000
     94      -3.4077      1.00000
     95      -3.4030      1.00000
     96      -2.9998      1.00000
     97      -2.8373      1.00000
     98      -2.6746      1.00000
     99      -2.6356      1.00000
    100      -2.4950      1.00000
    101      -2.1569      1.00000
    102      -1.8953      1.00000
    103      -1.8041      1.00000
    104      -1.6552      1.00000
    105      -1.4019      1.00000
    106      -1.3131      1.00000
    107      -1.2401      1.00000
    108      -1.1756      1.00000
    109      -1.0083      1.00000
    110      -0.9381      1.00000
    111      -0.8430      1.00000
    112      -0.8398      1.00000
    113      -0.7385      1.00000
    114      -0.5549      1.00000
    115      -0.4863      1.00000
    116      -0.4398      1.00000
    117      -0.2050      1.00000
    118      -0.1709      1.00000
    119       0.0297      1.00000
    120       0.3008      1.00000
    121       0.5061      0.00000
    122       0.5141      0.00000
    123       0.9042      0.00000
    124       1.0313      0.00000
    125       1.0510      0.00000
    126       1.0555      0.00000
    127       1.6642      0.00000
    128       2.5969      0.00000
    129       2.7482      0.00000
    130       2.7793      0.00000
    131       2.8564      0.00000
    132       2.9498      0.00000
    133       3.1053      0.00000
    134       3.1482      0.00000
    135       3.2356      0.00000
    136       3.2579      0.00000
    137       3.2988      0.00000
    138       3.4108      0.00000
    139       3.7422      0.00000
    140       3.8754      0.00000
    141       3.9635      0.00000
    142       4.0617      0.00000
    143       4.0764      0.00000
    144       4.2560      0.00000
    145       4.3867      0.00000
    146       4.4233      0.00000
    147       4.4763      0.00000
    148       4.6745      0.00000
    149       4.7048      0.00000
    150       4.7324      0.00000
    151       4.8040      0.00000
    152       4.8656      0.00000
    153       4.9767      0.00000
    154       5.0529      0.00000
    155       5.4316      0.00000
    156       5.7091      0.00000
    157       6.1742      0.00000
    158       6.3044      0.00000
    159       6.6693      0.00000
    160       7.1271      0.00000

 k-point     3 :       0.2500   -0.2500    0.2500
  band No.  band energies     occupation 
      1     -37.2536      1.00000
      2     -37.2285      1.00000
      3     -37.1794      1.00000
      4     -37.1263      1.00000
      5     -37.0987      1.00000
      6     -37.0513      1.00000
      7     -34.7060      1.00000
      8     -34.4988      1.00000
      9     -34.4282      1.00000
     10     -34.3945      1.00000
     11     -34.2688      1.00000
     12     -34.2333      1.00000
     13     -34.2052      1.00000
     14     -34.0221      1.00000
     15     -33.8726      1.00000
     16     -33.8294      1.00000
     17     -33.7839      1.00000
     18     -33.7277      1.00000
     19     -33.6556      1.00000
     20     -33.6297      1.00000
     21     -33.5486      1.00000
     22     -33.5281      1.00000
     23     -33.5105      1.00000
     24     -33.3755      1.00000
     25     -25.2584      1.00000
     26     -24.8557      1.00000
     27     -24.7119      1.00000
     28     -24.5132      1.00000
     29     -24.3143      1.00000
     30     -24.2090      1.00000
     31     -24.1766      1.00000
     32     -23.9886      1.00000
     33     -23.9124      1.00000
     34     -23.7800      1.00000
     35     -23.0444      1.00000
     36     -22.6498      1.00000
     37     -22.4966      1.00000
     38     -22.1783      1.00000
     39     -21.2133      1.00000
     40     -21.1017      1.00000
     41     -15.8261      1.00000
     42     -15.7010      1.00000
     43     -15.6288      1.00000
     44     -15.4779      1.00000
     45     -15.3928      1.00000
     46     -15.1876      1.00000
     47     -14.9918      1.00000
     48     -14.8427      1.00000
     49      -8.8594      1.00000
     50      -8.3008      1.00000
     51      -8.0559      1.00000
     52      -7.8274      1.00000
     53      -7.6937      1.00000
     54      -7.6528      1.00000
     55      -7.2663      1.00000
     56      -7.1560      1.00000
     57      -6.9828      1.00000
     58      -6.8281      1.00000
     59      -6.7662      1.00000
     60      -6.6955      1.00000
     61      -6.5810      1.00000
     62      -6.5538      1.00000
     63      -6.4337      1.00000
     64      -6.3565      1.00000
     65      -6.1959      1.00000
     66      -5.9662      1.00000
     67      -5.8743      1.00000
     68      -5.6760      1.00000
     69      -5.5778      1.00000
     70      -5.5361      1.00000
     71      -5.5275      1.00000
     72      -5.4503      1.00000
     73      -5.3990      1.00000
     74      -5.3041      1.00000
     75      -5.2821      1.00000
     76      -5.1341      1.00000
     77      -5.0795      1.00000
     78      -5.0124      1.00000
     79      -4.9697      1.00000
     80      -4.9541      1.00000
     81      -4.7167      1.00000
     82      -4.6918      1.00000
     83      -4.6274      1.00000
     84      -4.5600      1.00000
     85      -4.3544      1.00000
     86      -4.1869      1.00000
     87      -4.1442      1.00000
     88      -4.1137      1.00000
     89      -4.0740      1.00000
     90      -3.8745      1.00000
     91      -3.7692      1.00000
     92      -3.7036      1.00000
     93      -3.5470      1.00000
     94      -3.4073      1.00000
     95      -3.4034      1.00000
     96      -2.9527      1.00000
     97      -2.8378      1.00000
     98      -2.7227      1.00000
     99      -2.6374      1.00000
    100      -2.4856      1.00000
    101      -2.2461      1.00000
    102      -1.8942      1.00000
    103      -1.6664      1.00000
    104      -1.6529      1.00000
    105      -1.3778      1.00000
    106      -1.3130      1.00000
    107      -1.2398      1.00000
    108      -1.1872      1.00000
    109      -1.0108      1.00000
    110      -0.9885      1.00000
    111      -0.8568      1.00000
    112      -0.8389      1.00000
    113      -0.7536      1.00000
    114      -0.5698      1.00000
    115      -0.5062      1.00000
    116      -0.4396      1.00000
    117      -0.2013      1.00000
    118      -0.1718      1.00000
    119       0.0822      1.00000
    120       0.3008      1.00000
    121       0.5060      0.00000
    122       0.5140      0.00000
    123       0.9043      0.00000
    124       1.0313      0.00000
    125       1.0509      0.00000
    126       1.0556      0.00000
    127       1.6642      0.00000
    128       2.5963      0.00000
    129       2.7485      0.00000
    130       2.7792      0.00000
    131       2.8564      0.00000
    132       2.9493      0.00000
    133       3.0957      0.00000
    134       3.1229      0.00000
    135       3.2375      0.00000
    136       3.2568      0.00000
    137       3.2969      0.00000
    138       3.4109      0.00000
    139       3.7933      0.00000
    140       3.8768      0.00000
    141       3.9636      0.00000
    142       4.0617      0.00000
    143       4.0819      0.00000
    144       4.2086      0.00000
    145       4.4096      0.00000
    146       4.4310      0.00000
    147       4.4756      0.00000
    148       4.6703      0.00000
    149       4.7050      0.00000
    150       4.7366      0.00000
    151       4.8135      0.00000
    152       4.8340      0.00000
    153       4.9749      0.00000
    154       5.0674      0.00000
    155       5.4409      0.00000
    156       5.7126      0.00000
    157       6.1638      0.00000
    158       6.2811      0.00000
    159       6.6828      0.00000
    160       7.1339      0.00000

 k-point     4 :      -0.2500   -0.2500    0.2500
  band No.  band energies     occupation 
      1     -37.2536      1.00000
      2     -37.2285      1.00000
      3     -37.1794      1.00000
      4     -37.1263      1.00000
      5     -37.0987      1.00000
      6     -37.0513      1.00000
      7     -34.7060      1.00000
      8     -34.4988      1.00000
      9     -34.4282      1.00000
     10     -34.3945      1.00000
     11     -34.2688      1.00000
     12     -34.2333      1.00000
     13     -34.2052      1.00000
     14     -34.0221      1.00000
     15     -33.8726      1.00000
     16     -33.8294      1.00000
     17     -33.7839      1.00000
     18     -33.7277      1.00000
     19     -33.6556      1.00000
     20     -33.6297      1.00000
     21     -33.5486      1.00000
     22     -33.5281      1.00000
     23     -33.5105      1.00000
     24     -33.3755      1.00000
     25     -25.2584      1.00000
     26     -24.8556      1.00000
     27     -24.7119      1.00000
     28     -24.5132      1.00000
     29     -24.3143      1.00000
     30     -24.2090      1.00000
     31     -24.1766      1.00000
     32     -23.9886      1.00000
     33     -23.9124      1.00000
     34     -23.7800      1.00000
     35     -23.0444      1.00000
     36     -22.6498      1.00000
     37     -22.4966      1.00000
     38     -22.1783      1.00000
     39     -21.2133      1.00000
     40     -21.1017      1.00000
     41     -15.8255      1.00000
     42     -15.7017      1.00000
     43     -15.6297      1.00000
     44     -15.4765      1.00000
     45     -15.3928      1.00000
     46     -15.1880      1.00000
     47     -14.9918      1.00000
     48     -14.8427      1.00000
     49      -8.8594      1.00000
     50      -8.3008      1.00000
     51      -8.0559      1.00000
     52      -7.8275      1.00000
     53      -7.6938      1.00000
     54      -7.6527      1.00000
     55      -7.2663      1.00000
     56      -7.1560      1.00000
     57      -6.9828      1.00000
     58      -6.8281      1.00000
     59      -6.7661      1.00000
     60      -6.6955      1.00000
     61      -6.5811      1.00000
     62      -6.5538      1.00000
     63      -6.4337      1.00000
     64      -6.3565      1.00000
     65      -6.1959      1.00000
     66      -5.9662      1.00000
     67      -5.8742      1.00000
     68      -5.6760      1.00000
     69      -5.5775      1.00000
     70      -5.5345      1.00000
     71      -5.5292      1.00000
     72      -5.4503      1.00000
     73      -5.3988      1.00000
     74      -5.3045      1.00000
     75      -5.2821      1.00000
     76      -5.1341      1.00000
     77      -5.0794      1.00000
     78      -5.0116      1.00000
     79      -4.9693      1.00000
     80      -4.9550      1.00000
     81      -4.7153      1.00000
     82      -4.6922      1.00000
     83      -4.6263      1.00000
     84      -4.5564      1.00000
     85      -4.3587      1.00000
     86      -4.1866      1.00000
     87      -4.1547      1.00000
     88      -4.1142      1.00000
     89      -4.0735      1.00000
     90      -3.8746      1.00000
     91      -3.7690      1.00000
     92      -3.6945      1.00000
     93      -3.5436      1.00000
     94      -3.4077      1.00000
     95      -3.4030      1.00000
     96      -2.9998      1.00000
     97      -2.8373      1.00000
     98      -2.6746      1.00000
     99      -2.6356      1.00000
    100      -2.4950      1.00000
    101      -2.1569      1.00000
    102      -1.8953      1.00000
    103      -1.8041      1.00000
    104      -1.6551      1.00000
    105      -1.4019      1.00000
    106      -1.3131      1.00000
    107      -1.2401      1.00000
    108      -1.1756      1.00000
    109      -1.0083      1.00000
    110      -0.9381      1.00000
    111      -0.8430      1.00000
    112      -0.8398      1.00000
    113      -0.7385      1.00000
    114      -0.5549      1.00000
    115      -0.4863      1.00000
    116      -0.4398      1.00000
    117      -0.2050      1.00000
    118      -0.1710      1.00000
    119       0.0297      1.00000
    120       0.3009      1.00000
    121       0.5061      0.00000
    122       0.5141      0.00000
    123       0.9042      0.00000
    124       1.0313      0.00000
    125       1.0510      0.00000
    126       1.0555      0.00000
    127       1.6642      0.00000
    128       2.5969      0.00000
    129       2.7482      0.00000
    130       2.7794      0.00000
    131       2.8564      0.00000
    132       2.9498      0.00000
    133       3.1053      0.00000
    134       3.1482      0.00000
    135       3.2356      0.00000
    136       3.2578      0.00000
    137       3.2988      0.00000
    138       3.4108      0.00000
    139       3.7422      0.00000
    140       3.8754      0.00000
    141       3.9636      0.00000
    142       4.0617      0.00000
    143       4.0764      0.00000
    144       4.2560      0.00000
    145       4.3867      0.00000
    146       4.4233      0.00000
    147       4.4763      0.00000
    148       4.6745      0.00000
    149       4.7049      0.00000
    150       4.7324      0.00000
    151       4.8040      0.00000
    152       4.8656      0.00000
    153       4.9767      0.00000
    154       5.0528      0.00000
    155       5.4316      0.00000
    156       5.7091      0.00000
    157       6.1742      0.00000
    158       6.3044      0.00000
    159       6.6693      0.00000
    160       7.1271      0.00000

 spin component 2

 k-point     1 :       0.2500    0.2500    0.2500
  band No.  band energies     occupation 
      1     -37.2536      1.00000
      2     -37.2285      1.00000
      3     -37.1794      1.00000
      4     -37.1263      1.00000
      5     -37.0987      1.00000
      6     -37.0513      1.00000
      7     -34.7060      1.00000
      8     -34.4988      1.00000
      9     -34.4282      1.00000
     10     -34.3945      1.00000
     11     -34.2688      1.00000
     12     -34.2333      1.00000
     13     -34.2052      1.00000
     14     -34.0221      1.00000
     15     -33.8726      1.00000
     16     -33.8294      1.00000
     17     -33.7839      1.00000
     18     -33.7277      1.00000
     19     -33.6556      1.00000
     20     -33.6297      1.00000
     21     -33.5486      1.00000
     22     -33.5281      1.00000
     23     -33.5105      1.00000
     24     -33.3755      1.00000
     25     -25.2584      1.00000
     26     -24.8557      1.00000
     27     -24.7119      1.00000
     28     -24.5132      1.00000
     29     -24.3143      1.00000
     30     -24.2090      1.00000
     31     -24.1766      1.00000
     32     -23.9886      1.00000
     33     -23.9124      1.00000
     34     -23.7800      1.00000
     35     -23.0444      1.00000
     36     -22.6498      1.00000
     37     -22.4966      1.00000
     38     -22.1783      1.00000
     39     -21.2133      1.00000
     40     -21.1017      1.00000
     41     -15.8261      1.00000
     42     -15.7010      1.00000
     43     -15.6288      1.00000
     44     -15.4779      1.00000
     45     -15.3928      1.00000
     46     -15.1876      1.00000
     47     -14.9918      1.00000
     48     -14.8427      1.00000
     49      -8.8594      1.00000
     50      -8.3008      1.00000
     51      -8.0559      1.00000
     52      -7.8274      1.00000
     53      -7.6937      1.00000
     54      -7.6528      1.00000
     55      -7.2663      1.00000
     56      -7.1560      1.00000
     57      -6.9828      1.00000
     58      -6.8281      1.00000
     59      -6.7661      1.00000
     60      -6.6955      1.00000
     61      -6.5810      1.00000
     62      -6.5538      1.00000
     63      -6.4337      1.00000
     64      -6.3565      1.00000
     65      -6.1959      1.00000
     66      -5.9662      1.00000
     67      -5.8743      1.00000
     68      -5.6760      1.00000
     69      -5.5778      1.00000
     70      -5.5361      1.00000
     71      -5.5276      1.00000
     72      -5.4502      1.00000
     73      -5.3991      1.00000
     74      -5.3041      1.00000
     75      -5.2821      1.00000
     76      -5.1341      1.00000
     77      -5.0795      1.00000
     78      -5.0124      1.00000
     79      -4.9697      1.00000
     80      -4.9541      1.00000
     81      -4.7167      1.00000
     82      -4.6918      1.00000
     83      -4.6274      1.00000
     84      -4.5600      1.00000
     85      -4.3544      1.00000
     86      -4.1869      1.00000
     87      -4.1442      1.00000
     88      -4.1137      1.00000
     89      -4.0740      1.00000
     90      -3.8745      1.00000
     91      -3.7692      1.00000
     92      -3.7036      1.00000
     93      -3.5470      1.00000
     94      -3.4073      1.00000
     95      -3.4034      1.00000
     96      -2.9527      1.00000
     97      -2.8378      1.00000
     98      -2.7227      1.00000
     99      -2.6374      1.00000
    100      -2.4856      1.00000
    101      -2.2461      1.00000
    102      -1.8942      1.00000
    103      -1.6664      1.00000
    104      -1.6529      1.00000
    105      -1.3778      1.00000
    106      -1.3130      1.00000
    107      -1.2398      1.00000
    108      -1.1872      1.00000
    109      -1.0108      1.00000
    110      -0.9885      1.00000
    111      -0.8568      1.00000
    112      -0.8389      1.00000
    113      -0.7536      1.00000
    114      -0.5698      1.00000
    115      -0.5062      1.00000
    116      -0.4397      1.00000
    117      -0.2013      1.00000
    118      -0.1717      1.00000
    119       0.0822      1.00000
    120       0.3007      1.00000
    121       0.5060      0.00000
    122       0.5140      0.00000
    123       0.9043      0.00000
    124       1.0313      0.00000
    125       1.0509      0.00000
    126       1.0556      0.00000
    127       1.6642      0.00000
    128       2.5963      0.00000
    129       2.7485      0.00000
    130       2.7792      0.00000
    131       2.8564      0.00000
    132       2.9493      0.00000
    133       3.0957      0.00000
    134       3.1229      0.00000
    135       3.2374      0.00000
    136       3.2568      0.00000
    137       3.2969      0.00000
    138       3.4109      0.00000
    139       3.7933      0.00000
    140       3.8768      0.00000
    141       3.9635      0.00000
    142       4.0617      0.00000
    143       4.0819      0.00000
    144       4.2086      0.00000
    145       4.4096      0.00000
    146       4.4309      0.00000
    147       4.4756      0.00000
    148       4.6703      0.00000
    149       4.7050      0.00000
    150       4.7366      0.00000
    151       4.8135      0.00000
    152       4.8339      0.00000
    153       4.9749      0.00000
    154       5.0675      0.00000
    155       5.4409      0.00000
    156       5.7126      0.00000
    157       6.1638      0.00000
    158       6.2811      0.00000
    159       6.6828      0.00000
    160       7.1339      0.00000

 k-point     2 :      -0.2500    0.2500    0.2500
  band No.  band energies     occupation 
      1     -37.2536      1.00000
      2     -37.2285      1.00000
      3     -37.1794      1.00000
      4     -37.1263      1.00000
      5     -37.0987      1.00000
      6     -37.0513      1.00000
      7     -34.7060      1.00000
      8     -34.4988      1.00000
      9     -34.4282      1.00000
     10     -34.3945      1.00000
     11     -34.2688      1.00000
     12     -34.2333      1.00000
     13     -34.2052      1.00000
     14     -34.0221      1.00000
     15     -33.8726      1.00000
     16     -33.8294      1.00000
     17     -33.7839      1.00000
     18     -33.7277      1.00000
     19     -33.6556      1.00000
     20     -33.6297      1.00000
     21     -33.5486      1.00000
     22     -33.5281      1.00000
     23     -33.5105      1.00000
     24     -33.3755      1.00000
     25     -25.2584      1.00000
     26     -24.8556      1.00000
     27     -24.7119      1.00000
     28     -24.5132      1.00000
     29     -24.3143      1.00000
     30     -24.2090      1.00000
     31     -24.1766      1.00000
     32     -23.9886      1.00000
     33     -23.9124      1.00000
     34     -23.7800      1.00000
     35     -23.0444      1.00000
     36     -22.6498      1.00000
     37     -22.4966      1.00000
     38     -22.1783      1.00000
     39     -21.2133      1.00000
     40     -21.1017      1.00000
     41     -15.8255      1.00000
     42     -15.7017      1.00000
     43     -15.6297      1.00000
     44     -15.4765      1.00000
     45     -15.3928      1.00000
     46     -15.1880      1.00000
     47     -14.9918      1.00000
     48     -14.8427      1.00000
     49      -8.8594      1.00000
     50      -8.3008      1.00000
     51      -8.0559      1.00000
     52      -7.8275      1.00000
     53      -7.6938      1.00000
     54      -7.6527      1.00000
     55      -7.2663      1.00000
     56      -7.1560      1.00000
     57      -6.9828      1.00000
     58      -6.8281      1.00000
     59      -6.7662      1.00000
     60      -6.6955      1.00000
     61      -6.5811      1.00000
     62      -6.5538      1.00000
     63      -6.4337      1.00000
     64      -6.3565      1.00000
     65      -6.1959      1.00000
     66      -5.9662      1.00000
     67      -5.8742      1.00000
     68      -5.6760      1.00000
     69      -5.5775      1.00000
     70      -5.5345      1.00000
     71      -5.5292      1.00000
     72      -5.4503      1.00000
     73      -5.3988      1.00000
     74      -5.3045      1.00000
     75      -5.2821      1.00000
     76      -5.1341      1.00000
     77      -5.0794      1.00000
     78      -5.0116      1.00000
     79      -4.9693      1.00000
     80      -4.9550      1.00000
     81      -4.7153      1.00000
     82      -4.6922      1.00000
     83      -4.6263      1.00000
     84      -4.5564      1.00000
     85      -4.3587      1.00000
     86      -4.1866      1.00000
     87      -4.1547      1.00000
     88      -4.1142      1.00000
     89      -4.0735      1.00000
     90      -3.8746      1.00000
     91      -3.7690      1.00000
     92      -3.6945      1.00000
     93      -3.5436      1.00000
     94      -3.4077      1.00000
     95      -3.4030      1.00000
     96      -2.9998      1.00000
     97      -2.8373      1.00000
     98      -2.6746      1.00000
     99      -2.6356      1.00000
    100      -2.4950      1.00000
    101      -2.1569      1.00000
    102      -1.8953      1.00000
    103      -1.8041      1.00000
    104      -1.6552      1.00000
    105      -1.4019      1.00000
    106      -1.3131      1.00000
    107      -1.2401      1.00000
    108      -1.1756      1.00000
    109      -1.0083      1.00000
    110      -0.9381      1.00000
    111      -0.8430      1.00000
    112      -0.8398      1.00000
    113      -0.7385      1.00000
    114      -0.5549      1.00000
    115      -0.4863      1.00000
    116      -0.4398      1.00000
    117      -0.2050      1.00000
    118      -0.1709      1.00000
    119       0.0297      1.00000
    120       0.3008      1.00000
    121       0.5061      0.00000
    122       0.5141      0.00000
    123       0.9042      0.00000
    124       1.0313      0.00000
    125       1.0510      0.00000
    126       1.0555      0.00000
    127       1.6642      0.00000
    128       2.5969      0.00000
    129       2.7482      0.00000
    130       2.7793      0.00000
    131       2.8564      0.00000
    132       2.9498      0.00000
    133       3.1053      0.00000
    134       3.1482      0.00000
    135       3.2356      0.00000
    136       3.2579      0.00000
    137       3.2988      0.00000
    138       3.4108      0.00000
    139       3.7422      0.00000
    140       3.8754      0.00000
    141       3.9635      0.00000
    142       4.0617      0.00000
    143       4.0764      0.00000
    144       4.2560      0.00000
    145       4.3867      0.00000
    146       4.4233      0.00000
    147       4.4763      0.00000
    148       4.6745      0.00000
    149       4.7048      0.00000
    150       4.7324      0.00000
    151       4.8040      0.00000
    152       4.8656      0.00000
    153       4.9767      0.00000
    154       5.0529      0.00000
    155       5.4316      0.00000
    156       5.7091      0.00000
    157       6.1742      0.00000
    158       6.3044      0.00000
    159       6.6693      0.00000
    160       7.1271      0.00000

 k-point     3 :       0.2500   -0.2500    0.2500
  band No.  band energies     occupation 
      1     -37.2536      1.00000
      2     -37.2285      1.00000
      3     -37.1794      1.00000
      4     -37.1263      1.00000
      5     -37.0987      1.00000
      6     -37.0513      1.00000
      7     -34.7060      1.00000
      8     -34.4988      1.00000
      9     -34.4282      1.00000
     10     -34.3945      1.00000
     11     -34.2688      1.00000
     12     -34.2333      1.00000
     13     -34.2052      1.00000
     14     -34.0221      1.00000
     15     -33.8726      1.00000
     16     -33.8294      1.00000
     17     -33.7839      1.00000
     18     -33.7277      1.00000
     19     -33.6556      1.00000
     20     -33.6297      1.00000
     21     -33.5486      1.00000
     22     -33.5281      1.00000
     23     -33.5105      1.00000
     24     -33.3755      1.00000
     25     -25.2584      1.00000
     26     -24.8557      1.00000
     27     -24.7119      1.00000
     28     -24.5132      1.00000
     29     -24.3143      1.00000
     30     -24.2090      1.00000
     31     -24.1766      1.00000
     32     -23.9886      1.00000
     33     -23.9124      1.00000
     34     -23.7800      1.00000
     35     -23.0444      1.00000
     36     -22.6498      1.00000
     37     -22.4966      1.00000
     38     -22.1783      1.00000
     39     -21.2133      1.00000
     40     -21.1017      1.00000
     41     -15.8261      1.00000
     42     -15.7010      1.00000
     43     -15.6288      1.00000
     44     -15.4779      1.00000
     45     -15.3928      1.00000
     46     -15.1876      1.00000
     47     -14.9918      1.00000
     48     -14.8427      1.00000
     49      -8.8594      1.00000
     50      -8.3008      1.00000
     51      -8.0559      1.00000
     52      -7.8274      1.00000
     53      -7.6937      1.00000
     54      -7.6528      1.00000
     55      -7.2663      1.00000
     56      -7.1560      1.00000
     57      -6.9828      1.00000
     58      -6.8281      1.00000
     59      -6.7662      1.00000
     60      -6.6955      1.00000
     61      -6.5810      1.00000
     62      -6.5538      1.00000
     63      -6.4337      1.00000
     64      -6.3565      1.00000
     65      -6.1959      1.00000
     66      -5.9662      1.00000
     67      -5.8743      1.00000
     68      -5.6760      1.00000
     69      -5.5778      1.00000
     70      -5.5361      1.00000
     71      -5.5275      1.00000
     72      -5.4503      1.00000
     73      -5.3990      1.00000
     74      -5.3041      1.00000
     75      -5.2821      1.00000
     76      -5.1341      1.00000
     77      -5.0795      1.00000
     78      -5.0124      1.00000
     79      -4.9697      1.00000
     80      -4.9541      1.00000
     81      -4.7167      1.00000
     82      -4.6918      1.00000
     83      -4.6274      1.00000
     84      -4.5600      1.00000
     85      -4.3544      1.00000
     86      -4.1869      1.00000
     87      -4.1442      1.00000
     88      -4.1137      1.00000
     89      -4.0740      1.00000
     90      -3.8745      1.00000
     91      -3.7692      1.00000
     92      -3.7036      1.00000
     93      -3.5470      1.00000
     94      -3.4073      1.00000
     95      -3.4034      1.00000
     96      -2.9527      1.00000
     97      -2.8378      1.00000
     98      -2.7227      1.00000
     99      -2.6374      1.00000
    100      -2.4856      1.00000
    101      -2.2461      1.00000
    102      -1.8942      1.00000
    103      -1.6664      1.00000
    104      -1.6529      1.00000
    105      -1.3778      1.00000
    106      -1.3130      1.00000
    107      -1.2398      1.00000
    108      -1.1872      1.00000
    109      -1.0108      1.00000
    110      -0.9885      1.00000
    111      -0.8568      1.00000
    112      -0.8389      1.00000
    113      -0.7536      1.00000
    114      -0.5698      1.00000
    115      -0.5062      1.00000
    116      -0.4396      1.00000
    117      -0.2013      1.00000
    118      -0.1718      1.00000
    119       0.0822      1.00000
    120       0.3008      1.00000
    121       0.5060      0.00000
    122       0.5140      0.00000
    123       0.9043      0.00000
    124       1.0313      0.00000
    125       1.0509      0.00000
    126       1.0556      0.00000
    127       1.6642      0.00000
    128       2.5963      0.00000
    129       2.7485      0.00000
    130       2.7792      0.00000
    131       2.8564      0.00000
    132       2.9493      0.00000
    133       3.0957      0.00000
    134       3.1229      0.00000
    135       3.2375      0.00000
    136       3.2568      0.00000
    137       3.2969      0.00000
    138       3.4109      0.00000
    139       3.7933      0.00000
    140       3.8768      0.00000
    141       3.9636      0.00000
    142       4.0617      0.00000
    143       4.0819      0.00000
    144       4.2086      0.00000
    145       4.4096      0.00000
    146       4.4310      0.00000
    147       4.4756      0.00000
    148       4.6703      0.00000
    149       4.7050      0.00000
    150       4.7366      0.00000
    151       4.8135      0.00000
    152       4.8340      0.00000
    153       4.9749      0.00000
    154       5.0674      0.00000
    155       5.4409      0.00000
    156       5.7126      0.00000
    157       6.1638      0.00000
    158       6.2811      0.00000
    159       6.6828      0.00000
    160       7.1339      0.00000

 k-point     4 :      -0.2500   -0.2500    0.2500
  band No.  band energies     occupation 
      1     -37.2536      1.00000
      2     -37.2285      1.00000
      3     -37.1794      1.00000
[...]
 -0.000  -0.000  -0.000   0.000  -0.000  -0.000   0.000   0.000  -0.000   0.000  -0.000  -0.000  -0.000   0.000   0.000   0.000
 -0.000  -0.000  -0.000   0.000  -0.000   0.000  -0.000   0.000   0.000  -0.000   0.000   0.000  -0.000  -0.000   0.000  -0.000
 -0.000  -0.000  -0.000  -0.000  -0.000   0.000  -0.000   0.000   0.000  -0.000   0.000   0.000  -0.000  -0.000   0.000  -0.000
 -0.000   0.000  -0.000  -0.000  -0.000   0.000   0.000  -0.000   0.000  -0.000  -0.000  -0.000   0.000  -0.000  -0.000   0.000
  0.000   0.000  -0.000  -0.000  -0.000   0.000   0.000  -0.000   0.000   0.000  -0.000  -0.000  -0.000  -0.000  -0.000   0.000
  0.000   0.000   0.000   0.000   0.000   0.000   0.000   0.000   0.000   0.000   0.000   0.000  -0.000  -0.000   0.000  -0.000
  0.000   0.000   0.000   0.000  -0.000  -0.000   0.000  -0.000  -0.000   0.000  -0.000  -0.000   0.000   0.000  -0.000   0.000
 -0.000  -0.000  -0.000  -0.000  -0.000  -0.000   0.000   0.000   0.000  -0.000   0.000  -0.000   0.000  -0.000   0.000  -0.000
 -0.000  -0.000  -0.000  -0.000  -0.000   0.000   0.000   0.000   0.000  -0.000  -0.000  -0.000  -0.000  -0.000   0.000   0.000


------------------------ aborting loop because EDIFF is reached ----------------------------------------


 


 total charge     
 
# of ion       s       p       d       tot
------------------------------------------
    1        0.324   6.516   1.749   8.589
    2        0.323   6.515   1.749   8.587
    3        0.297   6.459   1.762   8.518
    4        0.302   6.430   1.780   8.512
    5        0.295   6.470   1.800   8.565
    6        0.294   6.470   1.808   8.572
    7        0.306   6.437   1.722   8.466
    8        0.307   6.427   1.665   8.399
    9        1.569   3.441   0.000   5.010
   10        1.566   3.426   0.000   4.992
   11        1.567   3.423   0.000   4.990
   12        1.566   3.426   0.000   4.992
   13        1.567   3.423   0.000   4.990
   14        1.564   3.417   0.000   4.981
   15        1.563   3.415   0.000   4.978
   16        1.570   3.460   0.000   5.030
   17        1.733   4.374   0.000   6.106
   18        1.733   4.374   0.000   6.107
   19        1.730   4.383   0.000   6.113
   20        1.728   4.359   0.000   6.087
   21        1.733   4.373   0.000   6.106
   22        1.733   4.372   0.000   6.105
   23        1.729   4.382   0.000   6.112
   24        1.735   4.390   0.000   6.125
   25        1.735   4.387   0.000   6.122
   26        1.735   4.390   0.000   6.125
   27        1.735   4.387   0.000   6.122
   28        1.731   4.394   0.000   6.125
   29        1.731   4.394   0.000   6.125
   30        1.732   4.401   0.000   6.133
   31        1.732   4.400   0.000   6.131
   32        1.729   4.370   0.000   6.100
--------------------------------------------------
tot         42.693 149.286  14.036 206.015
 


 magnetization (x)
 
# of ion       s       p       d       tot
------------------------------------------
    1       -0.000  -0.000   0.000   0.000
    2        0.000  -0.000   0.000   0.000
    3       -0.000  -0.000   0.000  -0.000
    4        0.000  -0.000   0.000   0.000
    5       -0.000   0.000  -0.000  -0.000
    6        0.000  -0.000  -0.000  -0.000
    7       -0.000  -0.000   0.000   0.000
    8       -0.000   0.000   0.000   0.000
    9       -0.000  -0.000   0.000  -0.000
   10       -0.000   0.000   0.000   0.000
   11        0.000   0.000   0.000   0.000
   12       -0.000  -0.000   0.000  -0.000
   13        0.000  -0.000   0.000   0.000
   14        0.000   0.000   0.000   0.000
   15        0.000   0.000   0.000   0.000
   16       -0.000   0.000   0.000  -0.000
   17        0.000  -0.000   0.000  -0.000
   18        0.000  -0.000   0.000   0.000
   19       -0.000  -0.000   0.000  -0.000
   20        0.000   0.000   0.000   0.000
   21        0.000  -0.000   0.000  -0.000
   22        0.000  -0.000   0.000  -0.000
   23        0.000  -0.000   0.000  -0.000
   24       -0.000   0.000   0.000  -0.000
   25       -0.000  -0.000   0.000  -0.000
   26       -0.000  -0.000   0.000  -0.000
   27        0.000  -0.000   0.000  -0.000
   28        0.000  -0.000   0.000  -0.000
   29       -0.000  -0.000   0.000  -0.000
   30       -0.000   0.000   0.000   0.000
   31       -0.000   0.000   0.000   0.000
   32       -0.000   0.000   0.000  -0.000
--------------------------------------------------
tot          0.000  -0.000   0.000   0.000
 
    CHARGE:  cpu time    0.3789: real time    0.3797
    FORLOC:  cpu time    0.0110: real time    0.0105
    FORNL :  cpu time    2.1067: real time    2.1072
    STRESS:  cpu time    6.4230: real time    6.4217
    FORCOR:  cpu time    0.1310: real time    0.1297
    FORHAR:  cpu time    0.0210: real time    0.0212
    MIXING:  cpu time    0.0010: real time    0.0017
    OFIELD:  cpu time    0.0000: real time    0.0000

  FORCE on cell =-STRESS in cart. coord.  units (eV):
  Direction    XX          YY          ZZ          XY          YZ          ZX
  --------------------------------------------------------------------------------------
  Alpha Z   752.29226   752.29226   752.29226
  Ewald   -4348.76987 -4166.50085 -4159.33901     0.01287     0.01069    -0.68835
  Hartree  2693.31526  2803.83718  2828.05798     0.00653     0.00233    -0.13030
  E(xc)   -1231.43389 -1231.67103 -1231.52253    -0.00000    -0.00003     0.00287
  Local   -1990.85045 -2327.28271 -2344.85761    -0.01939    -0.01376     0.94183
  n-local  -971.93680  -963.62645  -965.26783     0.00015     0.00050    -0.13147
  augment   748.15439   763.68798   757.02543     0.00008     0.00055    -0.07179
  Kinetic  4349.39323  4369.35331  4363.70980    -0.00045    -0.00024     0.07841
  Fock        0.00000     0.00000     0.00000     0.00000     0.00000     0.00000
  -------------------------------------------------------------------------------------
  Total       0.16414     0.08970     0.09850    -0.00019     0.00004     0.00121
  in kB       0.56497     0.30875     0.33903    -0.00066     0.00012     0.00415
  external pressure =        0.40 kB  Pullay stress =        0.00 kB


 VOLUME and BASIS-vectors are now :
 -----------------------------------------------------------------------------
  energy-cutoff  :      700.00
  volume of cell :      465.47
      direct lattice vectors                 reciprocal lattice vectors
     7.878261730  0.000004960 -0.000512761     0.126931554 -0.000000174  0.000005795
     0.000010472  7.651378591 -0.000007195    -0.000000082  0.130695402  0.000000125
    -0.000352518 -0.000007406  7.721779793     0.000008429  0.000000122  0.129503823

  length of vectors
     7.878261747  7.651378592  7.721779801     0.126931554  0.130695402  0.129503823


 FORCES acting on ions
    electron-ion (+dipol)            ewald-force                    non-local-force                 convergence-correction
 -----------------------------------------------------------------------------------------------
   0.868E+00 -.725E-01 0.127E+01   -.859E+00 0.787E-01 -.126E+01   -.379E-02 0.201E-03 -.311E-02   0.329E-04 0.638E-03 0.329E-04
   0.477E+01 -.117E-01 -.402E+00   -.475E+01 0.125E-01 0.412E+00   -.833E-02 -.223E-04 -.827E-02   0.126E-03 0.197E-03 -.716E-04
   0.183E-01 -.733E-02 0.654E+01   -.715E-01 0.392E-02 -.655E+01   0.470E-01 0.193E-02 0.723E-02   0.292E-03 -.588E-03 0.635E-03
   -.522E+01 0.173E-02 -.502E+01   0.438E+01 -.229E-02 0.504E+01   0.836E+00 0.276E-03 -.107E-01   0.105E-02 -.157E-03 -.682E-03
   -.354E+00 0.175E-01 0.132E+01   0.369E+00 -.178E-01 -.138E+01   -.119E-01 0.124E-02 0.558E-01   -.153E-03 -.129E-03 0.897E-04
   -.679E+01 -.112E-01 -.239E+01   0.671E+01 0.118E-01 0.242E+01   0.806E-01 -.284E-03 -.291E-01   -.336E-03 -.838E-04 0.518E-05
   -.375E+01 0.484E-01 -.152E+01   0.372E+01 -.471E-01 0.673E+00   0.157E-01 -.169E-02 0.850E+00   -.708E-04 0.961E-04 0.257E-03
   -.623E+01 -.406E-02 -.135E+01   0.728E+01 0.347E-02 0.241E+01   -.106E+01 0.301E-03 -.107E+01   -.844E-03 0.768E-04 -.227E-03
   0.637E+02 0.118E-02 0.420E+01   -.691E+02 -.125E-02 -.493E+01   0.544E+01 0.167E-03 0.730E+00   0.505E-03 -.204E-04 -.187E-03
   -.120E+01 -.581E+02 -.489E+01   0.124E+01 0.612E+02 0.551E+01   -.360E-01 -.318E+01 -.616E+00   -.762E-04 -.804E-04 0.111E-03
   -.110E+00 -.685E+02 0.320E+01   -.801E-01 0.720E+02 -.357E+01   0.196E+00 -.351E+01 0.367E+00   -.260E-03 0.321E-03 -.341E-04
   -.121E+01 0.579E+02 -.490E+01   0.124E+01 -.610E+02 0.552E+01   -.362E-01 0.316E+01 -.617E+00   -.756E-04 0.689E-04 0.110E-03
   -.111E+00 0.685E+02 0.320E+01   -.782E-01 -.720E+02 -.357E+01   0.195E+00 0.351E+01 0.367E+00   -.257E-03 -.341E-03 -.341E-04
   -.609E+01 0.684E-02 -.475E+02   0.694E+01 -.804E-02 0.500E+02   -.850E+00 0.178E-02 -.243E+01   0.271E-03 -.130E-03 0.110E-02
   -.676E+01 0.537E-02 0.442E+02   0.759E+01 -.651E-02 -.463E+02   -.833E+00 0.172E-02 0.203E+01   0.279E-03 -.131E-03 -.972E-03
   0.502E+01 0.251E-01 0.305E+02   -.568E+01 -.275E-01 -.328E+02   0.661E+00 0.240E-02 0.233E+01   -.108E-03 0.209E-04 -.308E-03
   -.106E+03 -.134E-01 0.694E+00   0.117E+03 0.150E-01 -.708E+00   -.116E+02 -.184E-02 0.140E-01   -.642E-03 0.111E-03 0.116E-04
   -.104E+03 -.652E-02 -.922E+00   0.115E+03 0.748E-02 0.957E+00   -.115E+02 -.106E-02 -.355E-01   -.673E-03 0.434E-04 -.430E-04
   -.362E+02 0.250E-01 -.643E+01   0.393E+02 -.293E-01 0.831E+01   -.318E+01 0.462E-02 -.189E+01   0.434E-03 -.997E-04 0.204E-03
   -.232E+02 -.214E-04 0.184E+01   0.232E+02 0.754E-04 -.264E+01   0.308E-01 0.316E-04 0.806E+00   -.311E-03 -.372E-04 -.197E-03
   0.106E+03 -.168E-01 0.431E+00   -.117E+03 0.186E-01 -.440E+00   0.116E+02 -.202E-02 0.921E-02   0.670E-03 0.110E-03 0.239E-04
   0.107E+03 -.781E-02 -.651E+00   -.119E+03 0.894E-02 0.695E+00   0.118E+02 -.123E-02 -.454E-01   0.777E-03 0.412E-04 -.287E-04
   0.367E+02 0.277E-01 -.873E+01   -.394E+02 -.322E-01 0.108E+02   0.272E+01 0.484E-02 -.203E+01   -.473E-03 -.990E-04 0.180E-03
   0.370E+00 -.886E+02 0.199E+01   -.408E+00 0.985E+02 -.210E+01   0.384E-01 -.987E+01 0.112E+00   0.609E-04 -.104E-02 0.110E-03
   -.127E+02 -.105E+03 -.114E+01   0.154E+02 0.116E+03 0.111E+01   -.269E+01 -.110E+02 0.378E-01   0.125E-03 -.727E-04 -.174E-03
   0.374E+00 0.888E+02 0.198E+01   -.412E+00 -.987E+02 -.209E+01   0.389E-01 0.988E+01 0.111E+00   0.597E-04 0.114E-02 0.110E-03
   -.127E+02 0.105E+03 -.114E+01   0.154E+02 -.116E+03 0.110E+01   -.269E+01 0.110E+02 0.381E-01   0.127E-03 0.914E-04 -.174E-03
   0.246E+01 -.208E-01 -.595E+01   -.265E+01 0.240E-01 0.634E+01   0.202E+00 -.344E-02 -.387E+00   0.462E-04 0.149E-03 -.235E-04
   0.227E+01 -.183E-01 0.586E+01   -.246E+01 0.212E-01 -.633E+01   0.205E+00 -.323E-02 0.480E+00   0.426E-04 0.150E-03 0.399E-04
   -.730E+00 0.668E-02 -.508E+01   0.600E+00 -.857E-02 0.561E+01   0.132E+00 0.181E-02 -.532E+00   -.101E-03 -.177E-04 -.126E-03
   -.585E+00 0.227E-02 0.509E+01   0.475E+00 -.375E-02 -.545E+01   0.113E+00 0.144E-02 0.352E+00   -.116E-03 -.167E-04 0.164E-03
   0.347E+01 0.188E-01 -.135E+02   -.427E+01 -.210E-01 0.132E+02   0.794E+00 0.222E-02 0.291E+00   -.126E-03 0.155E-04 0.213E-03
 -----------------------------------------------------------------------------------------------
   -.732E+00 -.890E-02 0.717E+00   0.185E-12 0.554E-13 0.533E-14   0.734E+00 0.872E-02 -.717E+00   0.280E-03 0.227E-03 0.111E-03
 
 
 POSITION                                       TOTAL-FORCE (eV/Angst)
 -----------------------------------------------------------------------------------
      0.00015      7.65125      7.72129         0.005095      0.007079      0.001330
      0.01444      7.65136      3.86008         0.004901      0.001000      0.001637
      0.00564      3.82572      0.00974        -0.005966     -0.002062      0.001054
      7.72198      3.82570      3.86625        -0.004062     -0.000448      0.000645
      3.93986      0.00012      0.00393         0.003457      0.000861     -0.002939
      3.94554      7.65133      3.85941         0.003359      0.000247     -0.002896
      3.94023      3.82591      7.60281        -0.007719     -0.000243     -0.001424
      3.98725      3.82563      3.92943        -0.002484     -0.000214      0.000729
      5.94367      3.82567      3.85231        -0.002306      0.000073      0.002452
      3.94372      1.84382      0.00146        -0.002861     -0.000660     -0.000828
      3.94581      1.83907      3.85398         0.005462      0.000798     -0.001701
      3.94374      5.80752      0.00144        -0.002868      0.000331     -0.000818
      3.94582      5.81228      3.85398         0.005454     -0.000943     -0.001696
      7.87608      3.82568      1.88052        -0.005823      0.000447     -0.000274
      7.87401      3.82569      5.84874        -0.004708      0.000453      0.000448
      3.92475      3.82567      5.80189        -0.006076      0.000061     -0.000859
      1.86462      7.65137      0.00093         0.002190     -0.000148     -0.000010
      1.87663      7.65137      3.86117         0.003832     -0.000061      0.000015
      1.94927      3.82568      0.02626        -0.007148      0.000237     -0.003550
      1.92233      3.82568      3.84593        -0.002689      0.000047      0.003422
      6.01537      0.00001      0.00088         0.004445     -0.000124     -0.000027
      6.02794      0.00000      3.86113         0.005745     -0.000061     -0.000713
      5.93158      3.82566      0.03102        -0.005938      0.000230     -0.000106
      0.00167      1.83768      0.00027         0.000632     -0.003142      0.002158
      0.03955      1.83492      3.86203         0.003316     -0.000529      0.002399
      0.00165      5.81379      0.00027         0.000617     -0.002671      0.002124
      0.03955      5.81646      3.86202         0.003336     -0.000130      0.002395
      0.00057      0.00000      1.92679         0.006848     -0.000144      0.001261
      0.00035      7.65137      5.79460         0.006788     -0.000153      0.001711
      3.93761      7.65135      1.92747         0.002272     -0.000102     -0.002990
      3.93823      7.65135      5.79517         0.002887     -0.000063     -0.002738
      3.91374      3.82566      1.91137        -0.009989      0.000033     -0.000210
 -----------------------------------------------------------------------------------
    total drift:                                0.002200      0.000044     -0.000100


--------------------------------------------------------------------------------------------------------



  FREE ENERGIE OF THE ION-ELECTRON SYSTEM (eV)
  ---------------------------------------------------
  free  energy   TOTEN  =      -208.46313085 eV

  energy  without entropy=     -208.46313085  energy(sigma->0) =     -208.46313085
 


--------------------------------------------------------------------------------------------------------


    POTLOK:  cpu time    0.9739: real time    0.9724


--------------------------------------------------------------------------------------------------------


 stress matrix after NEB project (eV)
      0.16414     -0.00019      0.00121
     -0.00019      0.08970      0.00004
      0.00120      0.00004      0.09850
  FORCES: max atom, RMS     0.009992    0.005429
  FORCE total and by dimension    0.030708    0.009989
  Stress total and by dimension    0.211402    0.164135
 Quasi-Newton relaxation of ions (Broydens 2nd method)
  g(Force)  = 0.455E-04   g(Stress)= 0.674E-04

 Reset! Starting new Quasi-Newton update for ions 


--------------------------------------------------------------------------------------------------------


  
 reached required accuracy - stopping structural energy minimisation
 writing wavefunctions
     LOOP+:  cpu time   44.3263: real time   45.0824
    4ORBIT:  cpu time    0.0000: real time    0.0000
 


 total charge     
 
# of ion       s       p       d       tot
------------------------------------------
    1        0.324   6.516   1.749   8.589
    2        0.323   6.515   1.749   8.587
    3        0.297   6.459   1.762   8.518
    4        0.302   6.430   1.780   8.512
    5        0.295   6.470   1.800   8.565
    6        0.294   6.470   1.808   8.572
    7        0.306   6.437   1.722   8.466
    8        0.307   6.427   1.665   8.399
    9        1.569   3.441   0.000   5.010
   10        1.566   3.426   0.000   4.992
   11        1.567   3.423   0.000   4.990
   12        1.566   3.426   0.000   4.992
   13        1.567   3.423   0.000   4.990
   14        1.564   3.417   0.000   4.981
   15        1.563   3.415   0.000   4.978
   16        1.570   3.460   0.000   5.030
   17        1.733   4.374   0.000   6.106
   18        1.733   4.374   0.000   6.107
   19        1.730   4.383   0.000   6.113
   20        1.728   4.359   0.000   6.087
   21        1.733   4.373   0.000   6.106
   22        1.733   4.372   0.000   6.105
   23        1.729   4.382   0.000   6.112
   24        1.735   4.390   0.000   6.125
   25        1.735   4.387   0.000   6.122
   26        1.735   4.390   0.000   6.125
   27        1.735   4.387   0.000   6.122
   28        1.731   4.394   0.000   6.125
   29        1.731   4.394   0.000   6.125
   30        1.732   4.401   0.000   6.133
   31        1.732   4.400   0.000   6.131
   32        1.729   4.370   0.000   6.100
--------------------------------------------------
tot         42.693 149.286  14.036 206.015
 


 magnetization (x)
 
# of ion       s       p       d       tot
------------------------------------------
    1       -0.000  -0.000   0.000   0.000
    2        0.000  -0.000   0.000   0.000
    3       -0.000  -0.000   0.000  -0.000
    4        0.000  -0.000   0.000   0.000
    5       -0.000   0.000  -0.000  -0.000
    6        0.000  -0.000  -0.000  -0.000
    7       -0.000  -0.000   0.000   0.000
    8       -0.000   0.000   0.000   0.000
    9       -0.000  -0.000   0.000  -0.000
   10       -0.000   0.000   0.000   0.000
   11        0.000   0.000   0.000   0.000
   12       -0.000  -0.000   0.000  -0.000
   13        0.000  -0.000   0.000   0.000
   14        0.000   0.000   0.000   0.000
   15        0.000   0.000   0.000   0.000
   16       -0.000   0.000   0.000  -0.000
   17        0.000  -0.000   0.000  -0.000
   18        0.000  -0.000   0.000   0.000
   19       -0.000  -0.000   0.000  -0.000
   20        0.000   0.000   0.000   0.000
   21        0.000  -0.000   0.000  -0.000
   22        0.000  -0.000   0.000  -0.000
   23        0.000  -0.000   0.000  -0.000
   24       -0.000   0.000   0.000  -0.000
   25       -0.000  -0.000   0.000  -0.000
   26       -0.000  -0.000   0.000  -0.000
   27        0.000  -0.000   0.000  -0.000
   28        0.000  -0.000   0.000  -0.000
   29       -0.000  -0.000   0.000  -0.000
   30       -0.000   0.000   0.000   0.000
   31       -0.000   0.000   0.000   0.000
   32       -0.000   0.000   0.000  -0.000
--------------------------------------------------
tot          0.000  -0.000   0.000   0.000
 

 total amount of memory used by VASP MPI-rank0    62300. kBytes
=======================================================================

   base      :      30000. kBytes
   nonlr-proj:       8520. kBytes
   fftplans  :       8422. kBytes
   grid      :       8783. kBytes
   one-center:        124. kBytes
   wavefun   :       6451. kBytes
 
  
  
 General timing and accounting informations for this job:
 ========================================================
  
                  Total CPU time used (sec):       60.795
                            User time (sec):       55.251
                          System time (sec):        5.544
                         Elapsed time (sec):       67.603
  
                   Maximum memory used (kb):      174400.
                   Average memory used (kb):           0.
  
                          Minor page faults:       100080
                          Major page faults:            2
                 Voluntary context switches:        17944
