LTO                                     
           1
     7.878262    0.000005   -0.000513
     0.000010    7.651379   -0.000007
    -0.000353   -0.000007    7.721780
   Ti   O    F 
   8   8  16
Direct configuration=     1
   0.00006287  0.99998373  0.99993800
   0.00185336  0.99999818  0.49989629
   0.00071562  0.50000380  0.00126241
   0.98018527  0.50000089  0.50076013
   0.50009284  0.00001515  0.00054246
   0.50083417  0.99999413  0.49984273
   0.50018269  0.50002990  0.98462666
   0.50612961  0.49999266  0.50890993
   0.75446102  0.49999812  0.49893881
   0.50058253  0.24097882  0.00022280
   0.50087006  0.24035861  0.49913850
   0.50058395  0.75901543  0.00022091
   0.50087061  0.75963857  0.49913859
   0.99973369  0.49999879  0.24360132
   0.99949375  0.49999962  0.75750150
   0.49820754  0.49999813  0.75140006
   0.23667739  0.99999897  0.00013700
   0.23822492  0.99999971  0.50005247
   0.24742303  0.49999807  0.00341735
   0.24402539  0.49999936  0.49807873
   0.76354075  0.00000023  0.00016404
   0.76515836  0.00000050  0.50008141
   0.75290414  0.49999631  0.00406807
   0.00021135  0.24017637  0.00003459
   0.00504217  0.23981608  0.50014845
   0.00020905  0.75983530  0.00003602
   0.00504143  0.76018483  0.50014723
   0.00008367  0.00000071  0.24952672
   0.00007659  0.99999966  0.75042404
   0.49981673  0.99999557  0.24964834
   0.49991791  0.99999724  0.75053112
   0.49678753  0.49999656  0.24756333
