 vasp.6.3.0 20Jan22 (build Jan 25 2022 13:20:17) complex                        
  
 executed on             LinuxIFC date 2024.06.12  10:41:07
 running on   80 total cores
 distrk:  each k-point on   80 cores,    1 groups
 distr:  one band on NCORE=   8 cores,   10 groups


--------------------------------------------------------------------------------------------------------


 INCAR:
   SYSTEM = LTO
   ISTART = 1
   ENCUT = 700.0
   IALGO = 38
   EDIFF = 1E-6
   PREC = Accurate
   ISPIN = 2
   LMAXMIX = 4
   ADDGRID = .TRUE.
   LASPH = .TRUE.
   LREAL = Auto
   ROPT = 1E-4 1E-4 1E-4
   GGA = PS
   LDAU = .TRUE.
   LDAUTYPE = 2
   LDAUL = 2   -1    -1
   LDAUU = 4.2  0.0  0.0
   LDAUJ = 0.0  0.0  0.0
   NSW = 100
   EDIFFG = -0.01
   IBRION = 1
   ISIF = 3
   ISMEAR = 0
   SIGMA = 0.01
   ISYM = 0
   LORBIT = 11
   NEDOS = 3001
   NWRITE = 2
   NCORE = 8

 POTCAR:   PAW_PBE Ti_pv 07Sep2000                
 POTCAR:   PAW_PBE O 08Apr2002                    
 POTCAR:    PAW_PBE F 08Apr2002                   
 -----------------------------------------------------------------------------
|                                                                             |
|           W    W    AA    RRRRR   N    N  II  N    N   GGGG   !!!           |
|           W    W   A  A   R    R  NN   N  II  NN   N  G    G  !!!           |
|           W    W  A    A  R    R  N N  N  II  N N  N  G       !!!           |
|           W WW W  AAAAAA  RRRRR   N  N N  II  N  N N  G  GGG   !            |
|           WW  WW  A    A  R   R   N   NN  II  N   NN  G    G                |
|           W    W  A    A  R    R  N    N  II  N    N   GGGG   !!!           |
|                                                                             |
|     You use a magnetic or noncollinear calculation, but did not specify     |
|     the initial magnetic moment with the MAGMOM tag. Note that a            |
|     default of 1 will be used for all atoms. This ferromagnetic setup       |
|     may break the symmetry of the crystal, in particular it may rule        |
|     out finding an antiferromagnetic solution. Thence, we recommend         |
|     setting the initial magnetic moment manually or verifying carefully     |
|     that this magnetic setup is desired.                                    |
|                                                                             |
 -----------------------------------------------------------------------------

 POTCAR:   PAW_PBE Ti_pv 07Sep2000                
   VRHFIN =Ti: d3 s1                                                                                
   LEXCH  = PE                                                                                      
   EATOM  =  1042.3781 eV,   76.6126 Ry                                                             
                                                                                                    
   TITEL  = PAW_PBE Ti_pv 07Sep2000                                                                 
   LULTRA =        F    use ultrasoft PP ?                                                          
   IUNSCR =        1    unscreen: 0-lin 1-nonlin 2-no                                               
   RPACOR =    2.200    partial core radius                                                         
   POMASS =   47.880; ZVAL   =   10.000    mass and valenz                                          
   RCORE  =    2.500    outmost cutoff radius                                                       
   RWIGS  =    2.500; RWIGS  =    1.323    wigner-seitz radius (au A)                               
   ENMAX  =  222.338; ENMIN  =  166.753 eV                                                          
   RCLOC  =    1.701    cutoff for local pot                                                        
   LCOR   =        T    correct aug charges                                                         
   LPAW   =        T    paw PP                                                                      
   EAUG   =  482.848                                                                                
   DEXC   =    -.008                                                                                
   RMAX   =    3.092    core radius for proj-oper                                                   
   RAUG   =    1.300    factor for augmentation sphere                                              
   RDEP   =    2.538    radius for radial grids                                                     
   QCUT   =   -4.042; QGAM   =    8.085    optimization parameters                                  
                                                                                                    
   Description                                                                                      
     l     E      TYP  RCUT    TYP  RCUT                                                            
     1   .000     23  2.300                                                                         
     1  -.100     23  2.300                                                                         
     2   .000     23  2.500                                                                         
     2   .000     23  2.500                                                                         
     0   .000     23  2.500                                                                         
     0  1.500     23  2.500                                                                         
     3   .000      7   .000                                                                         
  local pseudopotential read in
  partial core-charges read in
  atomic valenz-charges read in
  non local Contribution for L=           1  read in
    real space projection operators read in
  non local Contribution for L=           1  read in
    real space projection operators read in
  non local Contribution for L=           2  read in
    real space projection operators read in
  non local Contribution for L=           2  read in
    real space projection operators read in
  non local Contribution for L=           0  read in
    real space projection operators read in
  non local Contribution for L=           0  read in
    real space projection operators read in
    PAW grid and wavefunctions read in
 
   number of l-projection  operators is LMAX  =           6
   number of lm-projection operators is LMMAX =          18
 
 POTCAR:   PAW_PBE O 08Apr2002                    
   VRHFIN =O: s2p4                                                                                  
   LEXCH  = PE                                                                                      
   EATOM  =   432.3788 eV,   31.7789 Ry                                                             
                                                                                                    
   TITEL  = PAW_PBE O 08Apr2002                                                                     
   LULTRA =        F    use ultrasoft PP ?                                                          
   IUNSCR =        0    unscreen: 0-lin 1-nonlin 2-no                                               
   RPACOR =     .000    partial core radius                                                         
   POMASS =   16.000; ZVAL   =    6.000    mass and valenz                                          
   RCORE  =    1.520    outmost cutoff radius                                                       
   RWIGS  =    1.550; RWIGS  =     .820    wigner-seitz radius (au A)                               
   ENMAX  =  400.000; ENMIN  =  300.000 eV                                                          
   ICORE  =        2    local potential                                                             
   LCOR   =        T    correct aug charges                                                         
   LPAW   =        T    paw PP                                                                      
   EAUG   =  605.392                                                                                
   DEXC   =     .000                                                                                
   RMAX   =    2.264    core radius for proj-oper                                                   
   RAUG   =    1.300    factor for augmentation sphere                                              
   RDEP   =    1.550    radius for radial grids                                                     
   QCUT   =   -5.520; QGAM   =   11.041    optimization parameters                                  
                                                                                                    
   Description                                                                                      
     l     E      TYP  RCUT    TYP  RCUT                                                            
     0   .000     23  1.200                                                                         
     0  -.700     23  1.200                                                                         
     1   .000     23  1.520                                                                         
     1   .600     23  1.520                                                                         
     2   .000      7  1.500                                                                         
  local pseudopotential read in
  atomic valenz-charges read in
  non local Contribution for L=           0  read in
    real space projection operators read in
  non local Contribution for L=           0  read in
    real space projection operators read in
  non local Contribution for L=           1  read in
    real space projection operators read in
  non local Contribution for L=           1  read in
    real space projection operators read in
    PAW grid and wavefunctions read in
 
   number of l-projection  operators is LMAX  =           4
   number of lm-projection operators is LMMAX =           8
 
 POTCAR:    PAW_PBE F 08Apr2002                   
   VRHFIN =F: s2p5                                                                                  
   LEXCH  = PE                                                                                      
   EATOM  =   659.6475 eV,   48.4827 Ry                                                             
                                                                                                    
   TITEL  = PAW_PBE F 08Apr2002                                                                     
   LULTRA =        F    use ultrasoft PP ?                                                          
   IUNSCR =        1    unscreen: 0-lin 1-nonlin 2-no                                               
   RPACOR =    1.200    partial core radius                                                         
   POMASS =   18.998; ZVAL   =    7.000    mass and valenz                                          
   RCORE  =    1.520    outmost cutoff radius                                                       
   RWIGS  =    1.500; RWIGS  =    0.794    wigner-seitz radius (au A)                               
   ENMAX  =  400.000; ENMIN  =  300.000 eV                                                          
   ICORE  =        2    local potential                                                             
   LCOR   =        T    correct aug charges                                                         
   LPAW   =        T    paw PP                                                                      
   EAUG   =  613.614                                                                                
   RMAX   =    1.555    core radius for proj-oper                                                   
   RAUG   =    1.300    factor for augmentation sphere                                              
   RDEP   =    1.539    radius for radial grids                                                     
   RDEPT  =    1.299    core radius for aug-charge                                                  
                                                                                                    
   Atomic configuration                                                                             
    4 entries                                                                                       
     n  l   j            E        occ.                                                              
     1  0  0.50      -663.3661   2.0000                                                             
     2  0  0.50       -29.8995   2.0000                                                             
     2  1  0.50       -11.1114   5.0000                                                             
     3  2  1.50       -10.8847   0.0000                                                             
   Description                                                                                      
     l       E           TYP  RCUT    TYP  RCUT                                                     
     0    -29.8995018     23  1.200                                                                 
     0     -9.5240782     23  1.200                                                                 
     1    -11.1113914     23  1.520                                                                 
     1      1.3605826     23  1.520                                                                 
     2    -10.8846608      7  1.500                                                                 
  local pseudopotential read in
  partial core-charges read in
  partial kinetic energy density read in
  atomic valenz-charges read in
  non local Contribution for L=           0  read in
    real space projection operators read in
  non local Contribution for L=           0  read in
    real space projection operators read in
  non local Contribution for L=           1  read in
    real space projection operators read in
  non local Contribution for L=           1  read in
    real space projection operators read in
    PAW grid and wavefunctions read in
 
   number of l-projection  operators is LMAX  =           4
   number of lm-projection operators is LMMAX =           8
 
 Optimization of the real space projectors (new method)

 maximal supplied QI-value         = 15.12
 optimisation between [QCUT,QGAM] = [ 13.45, 27.06] = [ 50.69,205.06] Ry 
 Optimized for a Real-space Cutoff    1.49 Angstroem

   l    n(q)    QCUT    max X(q) W(low)/X(q) W(high)/X(q)  e(spline) 
   1     12    13.455     4.841    0.13E-05    0.83E-06    0.56E-07
   1     12    13.455     5.701    0.32E-04    0.25E-04    0.17E-06
   2     11    13.455     4.569    0.64E-05    0.34E-05    0.50E-07
   2     11    13.455    32.276    0.49E-04    0.38E-04    0.46E-06
   0     12    13.455    30.046    0.17E-04    0.41E-05    0.51E-07
   0     12    13.455    45.433    0.12E-04    0.27E-04    0.38E-06
 Optimization of the real space projectors (new method)

 maximal supplied QI-value         = 24.76
 optimisation between [QCUT,QGAM] = [ 13.37, 26.98] = [ 50.04,203.89] Ry 
 Optimized for a Real-space Cutoff    1.17 Angstroem

   l    n(q)    QCUT    max X(q) W(low)/X(q) W(high)/X(q)  e(spline) 
   0      9    13.368     4.192    0.20E-04    0.58E-05    0.56E-07
   0      9    13.368     8.473    0.60E-04    0.52E-04    0.21E-06
   1      9    13.368     2.474    0.22E-04    0.17E-04    0.28E-07
   1      9    13.368     3.912    0.94E-04    0.97E-04    0.20E-06
 Optimization of the real space projectors (new method)

 maximal supplied QI-value         = 24.76
 optimisation between [QCUT,QGAM] = [ 13.37, 26.98] = [ 50.04,203.89] Ry 
 Optimized for a Real-space Cutoff    1.17 Angstroem

   l    n(q)    QCUT    max X(q) W(low)/X(q) W(high)/X(q)  e(spline) 
   0      9    13.368    14.049    0.39E-04    0.34E-04    0.16E-06
   0      9    13.368     8.945    0.54E-04    0.47E-04    0.20E-06
   1      9    13.368     7.086    0.99E-04    0.10E-03    0.23E-06
   1      9    13.368     6.747    0.86E-04    0.89E-04    0.21E-06
 -----------------------------------------------------------------------------
|                                                                             |
|               ----> ADVICE to this user running VASP <----                  |
|                                                                             |
|     You enforced a specific xc type in the INCAR file but a different       |
|     type was found in the POTCAR file.                                      |
|     I HOPE YOU KNOW WHAT YOU ARE DOING!                                     |
|                                                                             |
 -----------------------------------------------------------------------------

 PAW_PBE Ti_pv 07Sep2000                :
 energy of atom  1       EATOM=-1042.3781
 kinetic energy error for atom=    0.0006 (will be added to EATOM!!)
 PAW_PBE O 08Apr2002                    :
 energy of atom  2       EATOM= -432.3788
 kinetic energy error for atom=    0.0091 (will be added to EATOM!!)
  PAW_PBE F 08Apr2002                   :
 energy of atom  3       EATOM= -659.6475
 kinetic energy error for atom=    0.0140 (will be added to EATOM!!)
 
 
 POSCAR: Ti27 O27 F54
  positions in direct lattice
  velocities in cartesian coordinates
 exchange correlation table for  LEXCH =       14
   RHO(1)=    0.500       N(1)  =     2000
   RHO(2)=  100.500       N(2)  =     4000
 


--------------------------------------------------------------------------------------------------------


 ion  position               nearest neighbor table
   1  0.991  0.001  0.012-  46 1.80  42 1.84  58 1.93  55 1.94  73 2.05  92 2.08
   2  0.008  0.009  0.325-  28 1.84  46 1.84  37 1.84  91 2.05  59 2.07  86 2.07
   3  0.989  1.000  0.667-  43 1.78  56 1.92  92 1.93  91 1.93  60 1.93  74 2.04
   4  0.988  0.343  0.999-  44 1.80  29 1.82  94 1.96  93 1.96  55 2.06  75 2.09
   5  0.998  0.322  0.342-  28 1.80  47 1.82  87 1.95  76 1.96  93 2.03  57 2.10
   6  0.000  0.344  0.657-  30 1.81  47 1.83  77 1.94  88 1.94  94 2.04  56 2.08
   7  0.007  0.658  0.990-  29 1.84  38 1.85  48 1.85  89 2.05  58 2.05  95 2.09
   8  0.991  0.667  0.333-  45 1.83  95 1.91  96 1.91  57 1.91  59 1.92  78 2.01
   9  0.999  0.658  0.679-  48 1.79  30 1.83  79 1.94  90 1.95  60 2.06  96 2.10
  10  0.334  0.987  0.999-  32 1.75  80 1.93  73 1.93  98 1.94  97 1.94  61 2.08
  11  0.322  0.000  0.344-  37 1.80  49 1.82  62 1.95  66 1.95  97 2.06  81 2.08
  12  0.332  0.990  0.657-  33 1.81  49 1.82  74 1.95  82 1.95  63 2.05  98 2.07
  13  0.334  0.332  0.988-  50 1.78  75 1.92  83 1.92  61 1.93  64 1.93  99 2.07
  14  0.341  0.344  0.333-  31 1.81  39 1.85  99 1.94 100 1.95  76 2.03  62 2.05
  15  0.346  0.333  0.672-  40 1.78  50 1.89  63 1.95  65 1.95 100 2.03  77 2.07
  16  0.322  0.672  0.007-  38 1.81  51 1.87  32 1.90  64 2.03 102 2.04  84 2.06
  17  0.334  0.658  0.322-  51 1.79  31 1.84  85 1.97  78 1.97  66 2.03 101 2.05
  18  0.345  0.675  0.666-  41 1.79  33 1.85 102 1.96 101 1.96  65 2.05  79 2.08
  19  0.677  0.001  0.991-  42 1.81  52 1.84  67 1.93  70 1.94  80 2.05 103 2.07
  20  0.667  0.012  0.334-  34 1.77 104 1.92  81 1.92 103 1.92  86 1.93  71 2.07
  21  0.673  0.000  0.678-  52 1.80  43 1.87  72 1.93  68 1.93  82 2.00 104 2.08
  22  0.676  0.341  0.990-  53 1.83  44 1.85  35 1.86  83 2.07  67 2.07 105 2.08
  23  0.657  0.326  0.334-  39 1.81  34 1.87 105 1.92 106 1.92  69 2.05  87 2.05
  24  0.660  0.343  0.677-  53 1.83  36 1.83  40 1.89  88 2.04  68 2.08 106 2.09
  25  0.668  0.657  0.988-  35 1.81  54 1.81  84 1.95  89 1.96  70 2.08 107 2.11
  26  0.676  0.668  0.333-  45 1.82 108 1.90 107 1.91  71 1.92  69 1.93  85 2.01
  27  0.661  0.656  0.677-  36 1.83  54 1.84  41 1.87  90 2.05  72 2.09 108 2.09
  28  0.988  0.166  0.335-   5 1.80   2 1.84
  29  0.993  0.500  0.999-   4 1.82   7 1.84
  30  0.993  0.500  0.670-   6 1.81   9 1.83
  31  0.330  0.500  0.337-  14 1.81  17 1.84
  32  0.336  0.835  0.991-  10 1.75  16 1.90
  33  0.333  0.834  0.675-  12 1.81  18 1.85
  34  0.675  0.165  0.334-  20 1.77  23 1.87
  35  0.671  0.501  0.001-  25 1.81  22 1.86
  36  0.679  0.500  0.667-  27 1.83  24 1.83
  37  0.167  0.999  0.333-  11 1.80   2 1.84
  38  0.167  0.665  0.999-  16 1.81   7 1.85
  39  0.501  0.331  0.341-  23 1.81  14 1.85
  40  0.498  0.337  0.654-  15 1.78  24 1.89
  41  0.500  0.662  0.665-  18 1.79  27 1.87
  42  0.833  0.004  0.995-  19 1.81   1 1.84
  43  0.835  0.998  0.668-   3 1.78  21 1.87
  44  0.834  0.321  0.000-   4 1.80  22 1.85
  45  0.833  0.665  0.331-  26 1.82   8 1.83
  46  0.996  0.997  0.167-   1 1.80   2 1.84
  47  0.999  0.336  0.499-   5 1.82   6 1.83
  48  0.989  0.674  0.832-   9 1.79   7 1.85
  49  0.335  0.000  0.500-  12 1.82  11 1.82
  50  0.339  0.334  0.835-  13 1.78  15 1.89
  51  0.337  0.668  0.168-  17 1.79  16 1.87
  52  0.661  0.002  0.833-  21 1.80  19 1.84
  53  0.659  0.324  0.834-  24 1.83  22 1.83
  54  0.677  0.675  0.834-  25 1.81  27 1.84
  55  0.012  0.166  0.999-   1 1.94   4 2.06
  56  0.004  0.165  0.667-   3 1.92   6 2.08
  57  0.008  0.502  0.327-   8 1.91   5 2.10
  58  0.003  0.835  1.000-   1 1.93   7 2.05
  59  0.998  0.832  0.340-   8 1.92   2 2.07
  60  0.009  0.835  0.659-   3 1.93   9 2.06
  61  0.332  0.166  0.005-  13 1.93  10 2.08
  62  0.335  0.167  0.327-  11 1.95  14 2.05
  63  0.331  0.166  0.668-  15 1.95  12 2.05
  64  0.338  0.497  0.004-  13 1.93  16 2.03
  65  0.323  0.500  0.657-  15 1.95  18 2.05
  66  0.340  0.833  0.334-  11 1.95  17 2.03
  67  0.658  0.165  0.013-  19 1.93  22 2.07
  68  0.665  0.165  0.654-  21 1.93  24 2.08
  69  0.663  0.502  0.334-  26 1.93  23 2.05
  70  0.661  0.835  0.008-  19 1.94  25 2.08
  71  0.662  0.833  0.333-  26 1.92  20 2.07
  72  0.662  0.835  0.659-  21 1.93  27 2.09
  73  0.168  0.001  0.998-  10 1.93   1 2.05
  74  0.165  0.004  0.669-  12 1.95   3 2.04
  75  0.168  0.335  0.002-  13 1.92   4 2.09
  76  0.167  0.327  0.329-   5 1.96  14 2.03
  77  0.167  0.332  0.669-   6 1.94  15 2.07
  78  0.164  0.674  0.333-  17 1.97   8 2.01
  79  0.166  0.665  0.668-   9 1.94  18 2.08
  80  0.500  0.004  0.006-  10 1.93  19 2.05
  81  0.501  0.002  0.328-  20 1.92  11 2.08
  82  0.500  0.005  0.666-  12 1.95  21 2.00
  83  0.499  0.330  0.012-  13 1.92  22 2.07
  84  0.500  0.666  0.995-  25 1.95  16 2.06
  85  0.502  0.666  0.341-  17 1.97  26 2.01
  86  0.831  0.986  0.341-  20 1.93   2 2.07
  87  0.832  0.349  0.326-   5 1.95  23 2.05
  88  0.835  0.318  0.672-   6 1.94  24 2.04
  89  0.833  0.679  0.017-  25 1.96   7 2.05
  90  0.834  0.682  0.651-   9 1.95  27 2.05
  91  0.000  0.999  0.501-   3 1.93   2 2.05
  92  0.007  0.997  0.833-   3 1.93   1 2.08
  93  0.004  0.333  0.168-   4 1.96   5 2.03
  94  0.005  0.326  0.832-   4 1.96   6 2.04
  95  0.003  0.674  0.169-   8 1.91   7 2.09
  96  0.005  0.664  0.498-   8 1.91   9 2.10
  97  0.334  0.997  0.166-  10 1.94  11 2.06
  98  0.337  0.013  0.834-  10 1.94  12 2.07
  99  0.332  0.333  0.166-  14 1.94  13 2.07
 100  0.320  0.324  0.499-  14 1.95  15 2.03
 101  0.328  0.673  0.498-  18 1.96  17 2.05
 102  0.333  0.652  0.833-  18 1.96  16 2.04
 103  0.670  0.995  0.169-  20 1.92  19 2.07
 104  0.661  0.996  0.499-  20 1.92  21 2.08
 105  0.664  0.335  0.169-  23 1.92  22 2.08
 106  0.681  0.334  0.498-  23 1.92  24 2.09
 107  0.657  0.670  0.170-  26 1.91  25 2.11
 108  0.667  0.670  0.497-  26 1.90  27 2.09
 

IMPORTANT INFORMATION: All symmetrisations will be switched off!
NOSYMM: (Re-)initialisation of all symmetry stuff for point group C_1.


----------------------------------------------------------------------------------------

                                     Primitive cell                                     

  volume of cell :    1552.2553

  direct lattice vectors                    reciprocal lattice vectors
    11.564016155  0.006007400 -0.011500212     0.086475256 -0.000044918  0.000086287
     0.006006297 11.581735400  0.009601238    -0.000044926  0.086342929 -0.000071566
    -0.011559692  0.009600344 11.589952606     0.000085843 -0.000071572  0.086281775

  length of vectors
    11.564023434 11.581740937 11.589962346     0.086475311  0.086342970  0.086281847

  position of ions in fractional coordinates (direct lattice)
     0.991044223  0.000740729  0.011551782
     0.007602993  0.009249897  0.324582737
     0.988944152  0.999805059  0.667444032
     0.987950227  0.342910317  0.999414368
     0.998193444  0.321587783  0.342488851
     0.000238613  0.344111713  0.657019214
     0.007030380  0.657664692  0.990187538
     0.991095863  0.666658813  0.333364662
     0.998907213  0.657744756  0.678781848
     0.334459053  0.986595303  0.999100707
     0.321633103  0.000256640  0.343586959
     0.332427889  0.989510843  0.657117795
     0.333976553  0.331558873  0.987814802
     0.341315008  0.343515049  0.333037466
     0.345755284  0.333373544  0.671887158
     0.322358176  0.672330848  0.007445611
     0.333555356  0.657857953  0.322121903
     0.345472604  0.675228429  0.666399784
     0.677009362  0.000759828  0.990962766
     0.666832309  0.012012040  0.334086435
     0.673242472  0.000214170  0.677923624
     0.675619388  0.341235621  0.989736474
     0.656723181  0.325532391  0.334301027
     0.660153060  0.343206481  0.677119985
     0.667753491  0.656517427  0.988163801
     0.675703648  0.667913407  0.333123797
     0.661121601  0.656138758  0.676679922
     0.987944197  0.166475981  0.334507611
     0.992880030  0.499666179  0.998672377
     0.992508312  0.499944605  0.670274179
     0.330475901  0.499559501  0.336914583
     0.335562708  0.835318338  0.991102107
     0.333055994  0.834230811  0.675174699
     0.675335696  0.164882886  0.333574648
     0.670823927  0.501078141  0.000583815
     0.679494284  0.499900955  0.666640949
     0.166522005  0.999499853  0.333423704
     0.166512089  0.664753233  0.998944586
     0.500609927  0.331397870  0.340588912
     0.498326607  0.337261398  0.654318076
     0.499884822  0.661516315  0.665203614
     0.833182683  0.004492731  0.994768447
     0.834770409  0.998283274  0.668406241
     0.833935957  0.321239426  0.000145721
     0.833092696  0.664946523  0.331275828
     0.996190921  0.997081809  0.166635278
     0.999033432  0.336336680  0.499112227
     0.989413914  0.673740562  0.831999364
     0.335406321  0.000366485  0.500264601
     0.338564493  0.334297053  0.834751545
     0.336872053  0.668165704  0.167841619
     0.660933979  0.001875415  0.833016758
     0.658715022  0.324315614  0.833604300
     0.677168933  0.675210249  0.833664491
     0.012371343  0.166429398  0.998682816
     0.004306445  0.164838800  0.666791989
     0.008197715  0.502410735  0.327459293
     0.002659059  0.834760133  0.999668618
     0.998062644  0.831831186  0.340383824
     0.008524822  0.834557313  0.659334144
     0.331516692  0.165802369  0.005196938
     0.334795479  0.167004033  0.326983285
     0.331002701  0.166076674  0.668146620
     0.338467389  0.497438102  0.004406965
     0.323026863  0.499721214  0.657320890
     0.339832497  0.832928097  0.333531400
     0.657601761  0.165053484  0.012917438
     0.665403296  0.165018860  0.654272806
     0.663140964  0.502118933  0.333501877
     0.660540797  0.835251184  0.007961966
     0.661717969  0.833245470  0.333256441
     0.661619185  0.835441450  0.659084797
     0.167985930  0.000863050  0.998358524
     0.164992007  0.003563298  0.668518436
     0.168381037  0.334916364  0.001665148
     0.166690935  0.327316416  0.328944668
     0.166970917  0.331548968  0.668989409
     0.164471807  0.674269924  0.333131574
     0.166254198  0.665312632  0.667561878
     0.500070790  0.004264193  0.006183894
     0.500925757  0.001773638  0.327807230
     0.500429676  0.004983139  0.665834646
     0.498741871  0.330035537  0.011574161
     0.499589006  0.666061688  0.995115908
     0.502438112  0.666305035  0.341123612
     0.831254268  0.985513447  0.340809215
     0.832162168  0.348705731  0.325579028
     0.834818417  0.318294820  0.671785022
     0.833178259  0.679250185  0.017088159
     0.834263914  0.682426070  0.650583393
     0.000366496  0.999107526  0.501422866
     0.007242298  0.996918085  0.832717770
     0.004270614  0.333223061  0.167631564
     0.005454990  0.325528707  0.832088906
     0.003171091  0.673596567  0.169334891
     0.004782082  0.663743476  0.497572179
     0.334482417  0.997195829  0.166142066
     0.336722758  0.012526150  0.833869959
     0.331697515  0.332896325  0.166136982
     0.319792673  0.324308627  0.499133382
     0.328002966  0.672962316  0.498427833
     0.333476968  0.652494812  0.833157451
     0.669671838  0.995106058  0.168974012
     0.660921043  0.995639339  0.498929261
     0.664457379  0.335161525  0.169089281
     0.680870315  0.334485875  0.498199489
     0.657376790  0.669863246  0.169735806
     0.667497121  0.669841950  0.497024963

  ion indices of the primitive-cell ions
   primitive index   ion index
                 1           1
                 2           2
                 3           3
                 4           4
                 5           5
                 6           6
                 7           7
                 8           8
                 9           9
                10          10
                11          11
                12          12
                13          13
                14          14
                15          15
                16          16
                17          17
                18          18
                19          19
                20          20
                21          21
                22          22
                23          23
                24          24
                25          25
                26          26
                27          27
                28          28
                29          29
                30          30
                31          31
                32          32
                33          33
                34          34
                35          35
                36          36
                37          37
                38          38
                39          39
                40          40
                41          41
                42          42
                43          43
                44          44
                45          45
                46          46
                47          47
                48          48
                49          49
                50          50
                51          51
                52          52
                53          53
                54          54
                55          55
                56          56
                57          57
                58          58
                59          59
                60          60
                61          61
                62          62
                63          63
                64          64
                65          65
                66          66
                67          67
                68          68
                69          69
                70          70
                71          71
                72          72
                73          73
                74          74
                75          75
                76          76
                77          77
                78          78
                79          79
                80          80
                81          81
                82          82
                83          83
                84          84
                85          85
                86          86
                87          87
                88          88
                89          89
                90          90
                91          91
                92          92
                93          93
                94          94
                95          95
                96          96
                97          97
                98          98
                99          99
               100         100
               101         101
               102         102
               103         103
               104         104
               105         105
               106         106
               107         107
               108         108

----------------------------------------------------------------------------------------

 
 
 KPOINTS: Title                                   

Automatic generation of k-mesh.
 Grid dimensions read from file:
 generate k-points for:    3    3    3

 Generating k-lattice:

  Cartesian coordinates                     Fractional coordinates (reciprocal lattice)
     0.028825085 -0.000014973  0.000028762     0.333333333  0.000000000 -0.000000000
    -0.000014975  0.028780976 -0.000023855    -0.000000000  0.333333333 -0.000000000
     0.000028614 -0.000023857  0.028760592    -0.000000000 -0.000000000  0.333333333

  Length of vectors
     0.028825104  0.028780990  0.028760616

  Shift w.r.t. Gamma in fractional coordinates (k-lattice)
     0.000000000  0.000000000  0.000000000

 
 Subroutine IBZKPT returns following result:
 ===========================================
 
 Found     14 irreducible k-points:
 
 Following reciprocal coordinates:
            Coordinates               Weight
  0.000000  0.000000  0.000000      1.000000
  0.333333 -0.000000  0.000000      2.000000
 -0.000000  0.333333  0.000000      2.000000
  0.333333  0.333333  0.000000      2.000000
 -0.333333  0.333333 -0.000000      2.000000
 -0.000000  0.000000  0.333333      2.000000
  0.333333 -0.000000  0.333333      2.000000
 -0.333333  0.000000  0.333333      2.000000
 -0.000000  0.333333  0.333333      2.000000
  0.333333  0.333333  0.333333      2.000000
 -0.333333  0.333333  0.333333      2.000000
 -0.000000 -0.333333  0.333333      2.000000
  0.333333 -0.333333  0.333333      2.000000
 -0.333333 -0.333333  0.333333      2.000000
 
 Following cartesian coordinates:
            Coordinates               Weight
  0.000000  0.000000  0.000000      1.000000
  0.028825 -0.000015  0.000029      2.000000
 -0.000015  0.028781 -0.000024      2.000000
  0.028810  0.028766  0.000005      2.000000
 -0.028840  0.028796 -0.000053      2.000000
  0.000029 -0.000024  0.028761      2.000000
  0.028854 -0.000039  0.028789      2.000000
 -0.028796 -0.000009  0.028732      2.000000
  0.000014  0.028757  0.028737      2.000000
  0.028839  0.028742  0.028765      2.000000
 -0.028811  0.028772  0.028708      2.000000
  0.000044 -0.028805  0.028784      2.000000
  0.028869 -0.028820  0.028813      2.000000
 -0.028781 -0.028790  0.028756      2.000000
 


--------------------------------------------------------------------------------------------------------




 Dimension of arrays:
   k-points           NKPTS =     14   k-points in BZ     NKDIM =     14   number of bands    NBANDS=    540
   number of dos      NEDOS =   3001   number of ions     NIONS =    108
   non local maximal  LDIM  =      6   non local SUM 2l+1 LMDIM =     18
   total plane-waves  NPLWV = ******
   max r-space proj   IRMAX =   8938   max aug-charges    IRDMAX= 200268
   dimension x,y,z NGX =   100 NGY =  100 NGZ =  100
   dimension x,y,z NGXF=   200 NGYF=  200 NGZF=  200
   support grid    NGXF=   400 NGYF=  400 NGZF=  400
   ions per type =              27  27  54
   NGX,Y,Z   is equivalent  to a cutoff of  14.38, 14.35, 14.34 a.u.
   NGXF,Y,Z  is equivalent  to a cutoff of  28.75, 28.71, 28.69 a.u.

 SYSTEM =  LTO                                     
 POSCAR =  Ti27 O27 F54                            

 Startparameter for this run:
   NWRITE =      2    write-flag & timer
   PREC   = accura    normal or accurate (medium, high low for compatibility)
   ISTART =      0    job   : 0-new  1-cont  2-samecut
   ICHARG =      2    charge: 1-file 2-atom 10-const
   ISPIN  =      2    spin polarized calculation?
   LNONCOLLINEAR =      F non collinear calculations
   LSORBIT =      F    spin-orbit coupling
   INIWAV =      1    electr: 0-lowe 1-rand  2-diag
   LASPH  =      T    aspherical Exc in radial PAW
 Electronic Relaxation 1
   ENCUT  =  700.0 eV  51.45 Ry    7.17 a.u.  24.95 24.99 25.00*2*pi/ulx,y,z
   ENINI  =  700.0     initial cutoff
   ENAUG  =  613.6 eV  augmentation charge cutoff
   NELM   =     60;   NELMIN=  2; NELMDL=  0     # of ELM steps 
   EDIFF  = 0.1E-05   stopping-criterion for ELM
   LREAL  =      T    real-space projection
   NLSPLINE    = F    spline interpolate recip. space projectors
   LCOMPAT=      F    compatible to vasp.4.4
   GGA_COMPAT  = T    GGA compatible to vasp.4.4-vasp.4.6
   LMAXPAW     = -100 max onsite density
   LMAXMIX     =    4 max onsite mixed and CHGCAR
   VOSKOWN=      0    Vosko Wilk Nusair interpolation
   ROPT   =   -0.00010  -0.00010  -0.00010
 Ionic relaxation
   EDIFFG = -.1E-01   stopping-criterion for IOM
   NSW    =    100    number of steps for IOM
   NBLOCK =      1;   KBLOCK =    100    inner block; outer block 
   IBRION =      1    ionic relax: 0-MD 1-quasi-New 2-CG
   NFREE  =      0    steps in history (QN), initial steepest desc. (CG)
   ISIF   =      3    stress and relaxation
   IWAVPR =     11    prediction:  0-non 1-charg 2-wave 3-comb
   ISYM   =      0    0-nonsym 1-usesym 2-fastsym
   LCORR  =      T    Harris-Foulkes like correction to forces

   POTIM  = 0.5000    time-step for ionic-motion
   TEIN   =    0.0    initial temperature
   TEBEG  =    0.0;   TEEND  =   0.0 temperature during run
   SMASS  =  -3.00    Nose mass-parameter (am)
   estimated Nose-frequenzy (Omega)   =  0.10E-29 period in steps = 0.13E+47 mass=  -0.306E-26a.u.
   SCALEE = 1.0000    scale energy and forces
   NPACO  =    256;   APACO  = 10.0  distance and # of slots for P.C.
   PSTRESS=    0.0 pullay stress

  Mass of Ions in am
   POMASS =  47.88 16.00 19.00
  Ionic Valenz
   ZVAL   =  10.00  6.00  7.00
  Atomic Wigner-Seitz radii
   RWIGS  =  -1.00 -1.00 -1.00
  virtual crystal weights 
   VCA    =   1.00  1.00  1.00
   NELECT =     810.0000    total number of electrons
   NUPDOWN=      -1.0000    fix difference up-down

 DOS related values:
   EMIN   =  10.00;   EMAX   =-10.00  energy-range for DOS
   EFERMI =   0.00
   ISMEAR =     0;   SIGMA  =   0.01  broadening in eV -4-tet -1-fermi 0-gaus

 Electronic relaxation 2 (details)
   IALGO  =     38    algorithm
   LDIAG  =      T    sub-space diagonalisation (order eigenvalues)
   LSUBROT=      F    optimize rotation matrix (better conditioning)
   TURBO    =      0    0=normal 1=particle mesh
   IRESTART =      0    0=no restart 2=restart with 2 vectors
   NREBOOT  =      0    no. of reboots
   NMIN     =      0    reboot dimension
   EREF     =   0.00    reference energy to select bands
   IMIX   =      4    mixing-type and parameters
     AMIX     =   0.40;   BMIX     =  1.00
     AMIX_MAG =   1.60;   BMIX_MAG =  1.00
     AMIN     =   0.10
     WC   =   100.;   INIMIX=   1;  MIXPRE=   1;  MAXMIX= -45

 Intra band minimization:
   WEIMIN = 0.0010     energy-eigenvalue tresh-hold
   EBREAK =  0.46E-09  absolut break condition
   DEPER  =   0.30     relativ break condition  

   TIME   =   0.40     timestep for ELM

  volume/ion in A,a.u.               =      14.37        96.99
  Fermi-wavevector in a.u.,A,eV,Ry     =   1.318000  2.490659 23.635012  1.737124
  Thomas-Fermi vector in A             =   2.448001
 
 Write flags
   LWAVE        =      T    write WAVECAR
   LDOWNSAMPLE  =      F    k-point downsampling of WAVECAR
   LCHARG       =      T    write CHGCAR
   LVTOT        =      F    write LOCPOT, total local potential
   LVHAR        =      F    write LOCPOT, Hartree potential only
   LELF         =      F    write electronic localiz. function (ELF)
   LORBIT       =     11    0 simple, 1 ext, 2 COOP (PROOUT), +10 PAW based schemes


 Dipole corrections
   LMONO  =      F    monopole corrections only (constant potential shift)
   LDIPOL =      F    correct potential (dipole corrections)
   IDIPOL =      0    1-x, 2-y, 3-z, 4-all directions 
   EPSILON=  1.0000000 bulk dielectric constant

 LDA+U is selected, type is set to LDAUTYPE =  2
   angular momentum for each species LDAUL =     2   -1   -1
   U (eV)           for each species LDAUU =   4.2  0.0  0.0
   J (eV)           for each species LDAUJ =   0.0  0.0  0.0
 Exchange correlation treatment:
   GGA     =    PS    GGA type
   LEXCH   =    14    internal setting for exchange type
   LIBXC   =     F    Libxc                    
   VOSKOWN =     0    Vosko Wilk Nusair interpolation
   LHFCALC =     F    Hartree Fock is set to
   LHFONE  =     F    Hartree Fock one center treatment
   AEXX    =    0.0000 exact exchange contribution

 Linear response parameters
   LEPSILON=     F    determine dielectric tensor
   LRPA    =     F    only Hartree local field effects (RPA)
   LNABLA  =     F    use nabla operator in PAW spheres
   LVEL    =     F    velocity operator in full k-point grid
   CSHIFT  =0.1000    complex shift for real part using Kramers Kronig
   OMEGAMAX=  -1.0    maximum frequency
   DEG_THRESHOLD= 0.2000000E-02 threshold for treating states as degnerate
   RTIME   =   -0.100 relaxation time in fs
  (WPLASMAI=    0.000 imaginary part of plasma frequency in eV, 0.658/RTIME)
   DFIELD  = 0.0000000 0.0000000 0.0000000 field for delta impulse in time
 
  Optional k-point grid parameters
   LKPOINTS_OPT  =     F    use optional k-point grid
   KPOINTS_OPT_MODE=     1    mode for optional k-point grid
 
 Orbital magnetization related:
   ORBITALMAG=     F  switch on orbital magnetization
   LCHIMAG   =     F  perturbation theory with respect to B field
   DQ        =  0.001000  dq finite difference perturbation B field
   LLRAUG    =     F  two centre corrections for induced B field



--------------------------------------------------------------------------------------------------------


 quasi-Newton-method for relaxation of ions
 charge density and potential will be updated during run
 spin polarized calculation
 Variant of blocked Davidson
 Davidson routine will perform the subspace rotation
 perform sub-space diagonalisation
    after iterative eigenvector-optimisation
 modified Broyden-mixing scheme, WC =      100.0
 initial mixing is a Kerker type mixing with AMIX =  0.4000 and BMIX =      1.0000
 Hartree-type preconditioning will be used
 using additional bands          135
 real space projection scheme for non local part
 use partial core corrections
 calculate Harris-corrections to forces 
   (improved forces if not selfconsistent)
 use gradient corrections 
 use of overlap-Matrix (Vanderbilt PP)
 Gauss-broadening in eV      SIGMA  =   0.01


--------------------------------------------------------------------------------------------------------


  energy-cutoff  :      700.00
  volume of cell :     1552.26
      direct lattice vectors                 reciprocal lattice vectors
    11.564016155  0.006007400 -0.011500212     0.086475256 -0.000044918  0.000086287
     0.006006297 11.581735400  0.009601238    -0.000044926  0.086342929 -0.000071566
    -0.011559692  0.009600344 11.589952606     0.000085843 -0.000071572  0.086281775

  length of vectors
    11.564023434 11.581740937 11.589962346     0.086475311  0.086342970  0.086281847


 
 k-points in units of 2pi/SCALE and weight: Title                                   
   0.00000000  0.00000000  0.00000000       0.037
   0.02882509 -0.00001497  0.00002876       0.074
  -0.00001498  0.02878098 -0.00002386       0.074
   0.02881011  0.02876600  0.00000491       0.074
  -0.02884006  0.02879595 -0.00005262       0.074
   0.00002861 -0.00002386  0.02876059       0.074
   0.02885370 -0.00003883  0.02878935       0.074
  -0.02879647 -0.00000888  0.02873183       0.074
   0.00001364  0.02875712  0.02873674       0.074
   0.02883872  0.02874215  0.02876550       0.074
  -0.02881145  0.02877209  0.02870797       0.074
   0.00004359 -0.02880483  0.02878445       0.074
   0.02886867 -0.02881981  0.02881321       0.074
  -0.02878150 -0.02878986  0.02875568       0.074
 
 k-points in reciprocal lattice and weights: Title                                   
   0.00000000  0.00000000  0.00000000       0.037
   0.33333333 -0.00000000  0.00000000       0.074
  -0.00000000  0.33333333  0.00000000       0.074
   0.33333333  0.33333333  0.00000000       0.074
  -0.33333333  0.33333333 -0.00000000       0.074
  -0.00000000  0.00000000  0.33333333       0.074
   0.33333333 -0.00000000  0.33333333       0.074
  -0.33333333  0.00000000  0.33333333       0.074
  -0.00000000  0.33333333  0.33333333       0.074
   0.33333333  0.33333333  0.33333333       0.074
  -0.33333333  0.33333333  0.33333333       0.074
  -0.00000000 -0.33333333  0.33333333       0.074
   0.33333333 -0.33333333  0.33333333       0.074
  -0.33333333 -0.33333333  0.33333333       0.074
 
 position of ions in fractional coordinates (direct lattice) 
   0.99104422  0.00074073  0.01155178
   0.00760299  0.00924990  0.32458274
   0.98894415  0.99980506  0.66744403
   0.98795023  0.34291032  0.99941437
   0.99819344  0.32158778  0.34248885
   0.00023861  0.34411171  0.65701921
   0.00703038  0.65766469  0.99018754
   0.99109586  0.66665881  0.33336466
   0.99890721  0.65774476  0.67878185
   0.33445905  0.98659530  0.99910071
   0.32163310  0.00025664  0.34358696
   0.33242789  0.98951084  0.65711779
   0.33397655  0.33155887  0.98781480
   0.34131501  0.34351505  0.33303747
   0.34575528  0.33337354  0.67188716
   0.32235818  0.67233085  0.00744561
   0.33355536  0.65785795  0.32212190
   0.34547260  0.67522843  0.66639978
   0.67700936  0.00075983  0.99096277
   0.66683231  0.01201204  0.33408644
   0.67324247  0.00021417  0.67792362
   0.67561939  0.34123562  0.98973647
   0.65672318  0.32553239  0.33430103
   0.66015306  0.34320648  0.67711998
   0.66775349  0.65651743  0.98816380
   0.67570365  0.66791341  0.33312380
   0.66112160  0.65613876  0.67667992
   0.98794420  0.16647598  0.33450761
   0.99288003  0.49966618  0.99867238
   0.99250831  0.49994460  0.67027418
   0.33047590  0.49955950  0.33691458
   0.33556271  0.83531834  0.99110211
   0.33305599  0.83423081  0.67517470
   0.67533570  0.16488289  0.33357465
   0.67082393  0.50107814  0.00058381
   0.67949428  0.49990096  0.66664095
   0.16652200  0.99949985  0.33342370
   0.16651209  0.66475323  0.99894459
   0.50060993  0.33139787  0.34058891
   0.49832661  0.33726140  0.65431808
   0.49988482  0.66151632  0.66520361
   0.83318268  0.00449273  0.99476845
   0.83477041  0.99828327  0.66840624
   0.83393596  0.32123943  0.00014572
   0.83309270  0.66494652  0.33127583
   0.99619092  0.99708181  0.16663528
   0.99903343  0.33633668  0.49911223
   0.98941391  0.67374056  0.83199936
   0.33540632  0.00036649  0.50026460
   0.33856449  0.33429705  0.83475154
   0.33687205  0.66816570  0.16784162
   0.66093398  0.00187541  0.83301676
   0.65871502  0.32431561  0.83360430
   0.67716893  0.67521025  0.83366449
   0.01237134  0.16642940  0.99868282
   0.00430645  0.16483880  0.66679199
   0.00819771  0.50241074  0.32745929
   0.00265906  0.83476013  0.99966862
   0.99806264  0.83183119  0.34038382
   0.00852482  0.83455731  0.65933414
   0.33151669  0.16580237  0.00519694
   0.33479548  0.16700403  0.32698329
   0.33100270  0.16607667  0.66814662
   0.33846739  0.49743810  0.00440696
   0.32302686  0.49972121  0.65732089
   0.33983250  0.83292810  0.33353140
   0.65760176  0.16505348  0.01291744
   0.66540330  0.16501886  0.65427281
   0.66314096  0.50211893  0.33350188
   0.66054080  0.83525118  0.00796197
   0.66171797  0.83324547  0.33325644
   0.66161918  0.83544145  0.65908480
   0.16798593  0.00086305  0.99835852
   0.16499201  0.00356330  0.66851844
   0.16838104  0.33491636  0.00166515
   0.16669094  0.32731642  0.32894467
   0.16697092  0.33154897  0.66898941
   0.16447181  0.67426992  0.33313157
   0.16625420  0.66531263  0.66756188
   0.50007079  0.00426419  0.00618389
   0.50092576  0.00177364  0.32780723
   0.50042968  0.00498314  0.66583465
   0.49874187  0.33003554  0.01157416
   0.49958901  0.66606169  0.99511591
   0.50243811  0.66630503  0.34112361
   0.83125427  0.98551345  0.34080922
   0.83216217  0.34870573  0.32557903
   0.83481842  0.31829482  0.67178502
   0.83317826  0.67925018  0.01708816
   0.83426391  0.68242607  0.65058339
   0.00036650  0.99910753  0.50142287
   0.00724230  0.99691809  0.83271777
   0.00427061  0.33322306  0.16763156
   0.00545499  0.32552871  0.83208891
   0.00317109  0.67359657  0.16933489
   0.00478208  0.66374348  0.49757218
   0.33448242  0.99719583  0.16614207
   0.33672276  0.01252615  0.83386996
   0.33169752  0.33289632  0.16613698
   0.31979267  0.32430863  0.49913338
   0.32800297  0.67296232  0.49842783
   0.33347697  0.65249481  0.83315745
   0.66967184  0.99510606  0.16897401
   0.66092104  0.99563934  0.49892926
   0.66445738  0.33516152  0.16908928
   0.68087032  0.33448587  0.49819949
   0.65737679  0.66986325  0.16973581
   0.66749712  0.66984195  0.49702496
 
 position of ions in cartesian coordinates  (Angst):
  11.46032232  0.01464343  0.12249450
   0.08422462  0.11029164  3.76189991
  11.43445583 11.59182632  7.73387100
  11.41517908  3.98702629 11.57509588
  11.54109760  3.73382916  3.96103775
  -0.00276878  3.99171986  7.61812271
   0.07380329  7.62644681 11.48246017
  11.46119913  7.73022030  3.85868357
  11.54748325  7.63034309  7.86187696
   3.86206638 11.43808668 11.58515602
   3.71540018  0.00820306  3.97846018
   3.84254869 11.46855835  7.62164163
   3.85268286  3.85151683 11.44806931
   3.94518571  3.98374809  3.85926142
   3.99255522  3.86957161  7.78636485
   3.73170730  7.78876599  0.08904229
   3.85746719  7.62423302  3.73585788
   3.99140302  7.82879006  7.72605194
   7.81749654  0.02238078 11.47743303
   7.70746981  0.14633354  3.86449257
   7.77755152  0.01303319  7.84936230
   7.80348203  3.96566119 11.46650534
   7.59244830  3.77738463  3.87010612
   7.62825476  3.98539304  7.84349184
   7.71443253  7.61710930 11.45139569
   7.81400878  7.74285368  3.85953107
   7.64133962  7.60969346  7.84138493
  11.42173575  1.93722712  3.86716417
  11.47313751  5.80255370 11.56794461
  11.47263680  5.80262339  7.76183200
   3.82073453  5.79098576  3.90581989
   3.87401291  9.68596674 11.49098749
   3.84867072  9.67032323  7.82942219
   7.80672721  1.91688940  3.85993093
   7.76042160  5.80738995  0.00386274
   7.85297927  5.80020257  7.72332234
   1.92781217 11.58014418  3.87204632
   1.91799371  7.70958656 11.58218794
   5.78711466  3.84443958  3.94483406
   5.75711891  3.91534760  7.58102276
   5.77695987  7.67089612  7.71028095
   9.62346577  0.06658901 11.51978052
   9.65156791 11.57328446  7.74678137
   9.64557666  3.72552122 -0.00481725
   9.63406181  7.70941977  3.83627472
  11.52403042 11.55552195  1.92941178
  11.54908930  3.90615568  5.77642721
  11.43602752  7.81701620  9.63792347
   3.87286341  0.01106217  5.79418929
   3.90752368  3.88178780  9.67404694
   3.89766687  7.74215344  1.94781753
   7.63343305  0.03368830  9.64704188
   7.60970288  3.76809768  9.65697280
   7.82521109  7.83217793  9.66082720
   0.13251757  1.93720327 11.57614216
   0.04308196  1.91554667  7.72962068
   0.09403081  5.82198117  3.79996718
   0.02420735  9.67758412 11.59409605
  11.54267403  9.64331226  3.94154107
   0.09597208  9.67200303  7.64956623
   3.83460016  1.92232061  0.05801167
   3.86880358  1.93934692  3.78747400
   3.82099452  1.93185900  7.74157560
   3.91697918  5.76327210  0.05196009
   3.73089091  5.79588993  7.61940103
   3.93097578  9.65199636  3.86970212
   7.60535943  1.91568027  0.14373465
   7.68816243  1.92148337  7.57692292
   7.66773352  5.82259410  3.86246565
   7.64342917  9.67770278  0.09270189
   7.65326966  9.65760313  3.86281665
   7.64837404  9.68616387  7.63917408
   1.93105647  0.02058936 11.56900439
   1.90026377  0.04867835  7.74623376
   1.94915339  3.87994023  0.02057818
   1.92578013  3.79505148  3.81367878
   1.92511245  3.84733801  7.75481863
   1.90215360  7.81340208  3.86556152
   1.91884548  7.71288244  7.74148640
   5.78278082  0.05245025  0.06596106
   5.78893485  0.02669813  3.79352653
   5.77930994  0.06711192  7.71128479
   5.76930755  3.82549153  0.13157709
   5.76975267  7.72670491 11.53399585
   5.81026119  7.72326186  3.95422570
   9.61461742 11.42222154  3.94986520
   9.62146759  4.04674231  3.76722347
   9.64799980  3.69787084  7.77941200
   9.63876910  7.87206520  0.19499087
   9.64401969  7.91493575  7.53718862
   0.00444281 11.57621504  5.82105570
   0.08011187 11.55407936  9.66064785
   0.04944911  3.86093629  1.94599212
   0.05541812  3.77820846  9.64693373
   0.03875891  7.80306193  1.96901426
   0.05353494  7.69210691  5.77315573
   3.87202898 11.55286263  1.93130637
   3.88430336  0.15510283  9.66076119
   3.83583441  3.85910476  1.92490138
   3.69426570  3.76276968  5.78436832
   3.79131194  7.80082700  5.77944413
   3.85062108  7.56702419  9.65868508
   7.74811956 11.53070025  1.96025367
   7.64311426 11.53999169  5.78452512
   7.68385433  3.88736707  1.95531332
   7.86984531  3.88280004  5.76948979
   7.60397712  7.76375752  1.96610149
   7.71722530  7.76671376  5.75925072
 


--------------------------------------------------------------------------------------------------------


 k-point   1 :   0.0000 0.0000 0.0000  plane waves:   65133
 k-point   2 :   0.3333-0.0000 0.0000  plane waves:   65219
 k-point   3 :  -0.0000 0.3333 0.0000  plane waves:   65221
 k-point   4 :   0.3333 0.3333 0.0000  plane waves:   65266
 k-point   5 :  -0.3333 0.3333-0.0000  plane waves:   65247
 k-point   6 :  -0.0000 0.0000 0.3333  plane waves:   65217
 k-point   7 :   0.3333-0.0000 0.3333  plane waves:   65271
 k-point   8 :  -0.3333 0.0000 0.3333  plane waves:   65264
 k-point   9 :  -0.0000 0.3333 0.3333  plane waves:   65257
 k-point  10 :   0.3333 0.3333 0.3333  plane waves:   65331
 k-point  11 :  -0.3333 0.3333 0.3333  plane waves:   65320
 k-point  12 :  -0.0000-0.3333 0.3333  plane waves:   65286
 k-point  13 :   0.3333-0.3333 0.3333  plane waves:   65336
 k-point  14 :  -0.3333-0.3333 0.3333  plane waves:   65329

 maximum and minimum number of plane-waves per node :      8215     8071

 maximum number of plane-waves:     65336
 maximum index in each direction: 
   IXMAX=   25   IYMAX=   25   IZMAX=   25
   IXMIN=  -25   IYMIN=  -25   IZMIN=  -25


 real space projection operators:
  total allocation   :      54219.44 KBytes
  max/ min on nodes  :       7407.75       6160.52


 parallel 3D FFT for wavefunctions:
    minimum data exchange during FFTs selected (reduces bandwidth)
 parallel 3D FFT for charge:
    minimum data exchange during FFTs selected (reduces bandwidth)


 total amount of memory used by VASP MPI-rank0   297277. kBytes
=======================================================================

   base      :      30000. kBytes
   nonlr-proj:      25362. kBytes
   fftplans  :      18873. kBytes
   grid      :      21088. kBytes
   one-center:        435. kBytes
   wavefun   :     201519. kBytes
 
     INWAV:  cpu time      0.0000: real time      0.0000
 Broyden mixing: mesh for mixing (old mesh)
   NGX = 49   NGY = 49   NGZ = 51
  (NGX  =200   NGY  =200   NGZ  =200)
  gives a total of 122451 points

 initial charge density was supplied:
 charge density of overlapping atoms calculated
 number of electron     810.0000000 magnetization     108.0000000
 keeping initial charge density in first step


--------------------------------------------------------------------------------------------------------


 Maximum index for non-local projection operator         1373
 Maximum index for augmentation-charges         4055 (set IRDMAX)


--------------------------------------------------------------------------------------------------------


 First call to EWALD:  gamma=   0.153
 Maximum number of real-space cells 3x 3x 3
 Maximum number of reciprocal cells 3x 3x 3

    FEWALD:  cpu time      0.0130: real time      0.0130


--------------------------------------- Iteration      1(   1)  ---------------------------------------


    POTLOK:  cpu time      0.1613: real time      0.1641
    SETDIJ:  cpu time      0.8932: real time      0.8956
     EDDAV:  cpu time     89.6367: real time     89.8643
       DOS:  cpu time      0.0083: real time      0.0084
    --------------------------------------------
      LOOP:  cpu time     90.6996: real time     90.9324

 eigenvalue-minimisations  : 30240
 total energy-change (2. order) : 0.1321650E+05  (-0.4640959E+05)
 number of electron     810.0000000 magnetization     108.0000000
 augmentation part      810.0000000 magnetization     108.0000000

 Free energy of the ion-electron system (eV)
  ---------------------------------------------------
  alpha Z        PSCENC =      2569.55853878
  Ewald energy   TEWEN  =    -43369.32160377
  -Hartree energ DENC   =    -27666.29055810
  -exchange      EXHF   =         0.00000000
  -V(xc)+E(xc)   XCENC  =      3762.65248381
  PAW double counting   =     55010.87535266   -55252.78449702
  entropy T*S    EENTRO =        -0.00241394
  eigenvalues    EBANDS =      2891.37474342
  atomic energy  EATOM  =     75270.44210491
  Solvation  Ediel_sol  =         0.00000000
  ---------------------------------------------------
  free energy    TOTEN  =     13216.50415074 eV

  energy without entropy =    13216.50656468  energy(sigma->0) =    13216.50535771


--------------------------------------------------------------------------------------------------------




--------------------------------------- Iteration      1(   2)  ---------------------------------------


     EDDAV:  cpu time     90.7105: real time     90.9628
       DOS:  cpu time      0.0072: real time      0.0072
    --------------------------------------------
      LOOP:  cpu time     90.7177: real time     90.9700

 eigenvalue-minimisations  : 30270
 total energy-change (2. order) :-0.1156281E+05  (-0.1082007E+05)
 number of electron     810.0000000 magnetization     108.0000000
 augmentation part      810.0000000 magnetization     108.0000000

 Free energy of the ion-electron system (eV)
  ---------------------------------------------------
  alpha Z        PSCENC =      2569.55853878
  Ewald energy   TEWEN  =    -43369.32160377
  -Hartree energ DENC   =    -27666.29055810
  -exchange      EXHF   =         0.00000000
  -V(xc)+E(xc)   XCENC  =      3762.65248381
  PAW double counting   =     55010.87535266   -55252.78449702
  entropy T*S    EENTRO =        -0.00178891
  eigenvalues    EBANDS =     -8671.43244503
  atomic energy  EATOM  =     75270.44210491
  Solvation  Ediel_sol  =         0.00000000
  ---------------------------------------------------
  free energy    TOTEN  =      1653.69758732 eV

  energy without entropy =     1653.69937623  energy(sigma->0) =     1653.69848178


--------------------------------------------------------------------------------------------------------




--------------------------------------- Iteration      1(   3)  ---------------------------------------


     EDDAV:  cpu time     95.7432: real time     95.9905
       DOS:  cpu time      0.0098: real time      0.0098
    --------------------------------------------
      LOOP:  cpu time     95.7530: real time     96.0003

 eigenvalue-minimisations  : 32430
 total energy-change (2. order) :-0.2423240E+04  (-0.2274544E+04)
 number of electron     810.0000000 magnetization     108.0000000
 augmentation part      810.0000000 magnetization     108.0000000

 Free energy of the ion-electron system (eV)
  ---------------------------------------------------
  alpha Z        PSCENC =      2569.55853878
  Ewald energy   TEWEN  =    -43369.32160377
  -Hartree energ DENC   =    -27666.29055810
  -exchange      EXHF   =         0.00000000
  -V(xc)+E(xc)   XCENC  =      3762.65248381
  PAW double counting   =     55010.87535266   -55252.78449702
  entropy T*S    EENTRO =        -0.00000000
  eigenvalues    EBANDS =    -11094.67398970
  atomic energy  EATOM  =     75270.44210491
  Solvation  Ediel_sol  =         0.00000000
  ---------------------------------------------------
  free energy    TOTEN  =      -769.54216844 eV

  energy without entropy =     -769.54216844  energy(sigma->0) =     -769.54216844


--------------------------------------------------------------------------------------------------------




--------------------------------------- Iteration      1(   4)  ---------------------------------------


     EDDAV:  cpu time    106.4721: real time    106.7534
       DOS:  cpu time      0.0103: real time      0.0103
    --------------------------------------------
      LOOP:  cpu time    106.4824: real time    106.7638

 eigenvalue-minimisations  : 37390
 total energy-change (2. order) :-0.1542739E+03  (-0.1525924E+03)
 number of electron     810.0000000 magnetization     108.0000000
 augmentation part      810.0000000 magnetization     108.0000000

 Free energy of the ion-electron system (eV)
  ---------------------------------------------------
  alpha Z        PSCENC =      2569.55853878
  Ewald energy   TEWEN  =    -43369.32160377
  -Hartree energ DENC   =    -27666.29055810
  -exchange      EXHF   =         0.00000000
  -V(xc)+E(xc)   XCENC  =      3762.65248381
  PAW double counting   =     55010.87535266   -55252.78449702
  entropy T*S    EENTRO =        -0.00000000
  eigenvalues    EBANDS =    -11248.94793782
  atomic energy  EATOM  =     75270.44210491
  Solvation  Ediel_sol  =         0.00000000
  ---------------------------------------------------
  free energy    TOTEN  =      -923.81611656 eV

  energy without entropy =     -923.81611656  energy(sigma->0) =     -923.81611656


--------------------------------------------------------------------------------------------------------




--------------------------------------- Iteration      1(   5)  ---------------------------------------


     EDDAV:  cpu time    108.4002: real time    108.6786
       DOS:  cpu time      0.0031: real time      0.0031
    CHARGE:  cpu time      3.9576: real time      3.9675
    MIXING:  cpu time      0.0046: real time      0.0048
    --------------------------------------------
      LOOP:  cpu time    112.3656: real time    112.6541

 eigenvalue-minimisations  : 38420
 total energy-change (2. order) :-0.4929607E+01  (-0.4908483E+01)
 number of electron     810.0000009 magnetization      68.7498020
 augmentation part      205.5995624 magnetization      70.4910372

 Broyden mixing:
  rms(total) = 0.10947E+02    rms(broyden)= 0.10947E+02
  rms(prec ) = 0.13040E+02
  weight for this iteration     100.00

 Free energy of the ion-electron system (eV)
  ---------------------------------------------------
  alpha Z        PSCENC =      2569.55853878
  Ewald energy   TEWEN  =    -43369.32160377
  -Hartree energ DENC   =    -27666.29055810
  -exchange      EXHF   =         0.00000000
  -V(xc)+E(xc)   XCENC  =      3762.65248381
  PAW double counting   =     55010.87535266   -55252.78449702
  entropy T*S    EENTRO =        -0.00000000
  eigenvalues    EBANDS =    -11253.87754528
  atomic energy  EATOM  =     75270.44210491
  Solvation  Ediel_sol  =         0.00000000
  ---------------------------------------------------
  free energy    TOTEN  =      -928.74572401 eV

  energy without entropy =     -928.74572401  energy(sigma->0) =     -928.74572401


--------------------------------------------------------------------------------------------------------




--------------------------------------- Iteration      1(   6)  ---------------------------------------


    POTLOK:  cpu time      0.1658: real time      0.2479
    SETDIJ:  cpu time      0.9066: real time      0.9088
     EDDAV:  cpu time    112.3226: real time    112.6058
       DOS:  cpu time      0.0088: real time      0.0088
    CHARGE:  cpu time      3.9769: real time      3.9867
    MIXING:  cpu time      0.0048: real time      0.0048
    --------------------------------------------
      LOOP:  cpu time    117.3855: real time    117.7628

 eigenvalue-minimisations  : 40140
 total energy-change (2. order) : 0.4216235E+03  (-0.1148326E+03)
 number of electron     810.0000010 magnetization      47.0535098
 augmentation part      211.7190948 magnetization      41.6532397

 Broyden mixing:
  rms(total) = 0.32800E+01    rms(broyden)= 0.32793E+01
  rms(prec ) = 0.35802E+01
  weight for this iteration     100.00

 eigenvalues of (default mixing * dielectric matrix)
  average eigenvalue GAMMA=   0.8695
  0.8695

 Free energy of the ion-electron system (eV)
  ---------------------------------------------------
  alpha Z        PSCENC =      2569.55853878
  Ewald energy   TEWEN  =    -43369.32160377
  -Hartree energ DENC   =    -28071.55339382
  -exchange      EXHF   =         0.00000000
  -V(xc)+E(xc)   XCENC  =      3909.13473577
  PAW double counting   =     57651.74337151   -58024.74335899
  entropy T*S    EENTRO =        -0.00000000
  eigenvalues    EBANDS =    -10442.38258189
  atomic energy  EATOM  =     75270.44210491
  Solvation  Ediel_sol  =         0.00000000
  ---------------------------------------------------
  free energy    TOTEN  =      -507.12218750 eV

  energy without entropy =     -507.12218750  energy(sigma->0) =     -507.12218750


--------------------------------------------------------------------------------------------------------




--------------------------------------- Iteration      1(   7)  ---------------------------------------


    POTLOK:  cpu time      0.1939: real time      0.2733
    SETDIJ:  cpu time      0.9139: real time      0.9162
     EDDAV:  cpu time    108.6686: real time    108.9432
       DOS:  cpu time      0.0051: real time      0.0051
    CHARGE:  cpu time      3.9661: real time      3.9759
    MIXING:  cpu time      0.0046: real time      0.0046
    --------------------------------------------
      LOOP:  cpu time    113.7523: real time    114.1184

 eigenvalue-minimisations  : 38350
 total energy-change (2. order) :-0.9530187E+02  (-0.1931997E+02)
 number of electron     810.0000010 magnetization      26.3303436
 augmentation part      207.5018799 magnetization      22.4157379

 Broyden mixing:
  rms(total) = 0.19117E+01    rms(broyden)= 0.19116E+01
  rms(prec ) = 0.21264E+01
  weight for this iteration     100.00

 eigenvalues of (default mixing * dielectric matrix)
  average eigenvalue GAMMA=   0.9771
  1.0988  0.8554

 Free energy of the ion-electron system (eV)
  ---------------------------------------------------
  alpha Z        PSCENC =      2569.55853878
  Ewald energy   TEWEN  =    -43369.32160377
  -Hartree energ DENC   =    -28097.80905625
  -exchange      EXHF   =         0.00000000
  -V(xc)+E(xc)   XCENC  =      3859.60088585
  PAW double counting   =     59235.10104622   -59620.62401804
  entropy T*S    EENTRO =        -0.00000000
  eigenvalues    EBANDS =    -10449.37195110
  atomic energy  EATOM  =     75270.44210491
  Solvation  Ediel_sol  =         0.00000000
  ---------------------------------------------------
  free energy    TOTEN  =      -602.42405340 eV

  energy without entropy =     -602.42405340  energy(sigma->0) =     -602.42405340


--------------------------------------------------------------------------------------------------------




--------------------------------------- Iteration      1(   8)  ---------------------------------------


    POTLOK:  cpu time      0.2007: real time      0.3678
    SETDIJ:  cpu time      0.8859: real time      0.8882
     EDDAV:  cpu time    100.3499: real time    100.6054
       DOS:  cpu time      0.0205: real time      0.0205
    CHARGE:  cpu time      3.9846: real time      3.9945
    MIXING:  cpu time      0.0046: real time      0.0046
    --------------------------------------------
      LOOP:  cpu time    105.4463: real time    105.8810

 eigenvalue-minimisations  : 34790
 total energy-change (2. order) :-0.5556515E+02  (-0.4300409E+01)
 number of electron     810.0000010 magnetization      10.1259305
 augmentation part      209.5858574 magnetization       7.3736094

 Broyden mixing:
  rms(total) = 0.12340E+01    rms(broyden)= 0.12340E+01
  rms(prec ) = 0.13261E+01
  weight for this iteration     100.00

 eigenvalues of (default mixing * dielectric matrix)
  average eigenvalue GAMMA=   1.1752
  1.4175  1.4175  0.6906

 Free energy of the ion-electron system (eV)
  ---------------------------------------------------
  alpha Z        PSCENC =      2569.55853878
  Ewald energy   TEWEN  =    -43369.32160377
  -Hartree energ DENC   =    -27939.52257166
  -exchange      EXHF   =         0.00000000
  -V(xc)+E(xc)   XCENC  =      3823.11226593
  PAW double counting   =     60269.49551354   -60673.76438753
  entropy T*S    EENTRO =        -0.00000000
  eigenvalues    EBANDS =    -10607.98906225
  atomic energy  EATOM  =     75270.44210491
  Solvation  Ediel_sol  =         0.00000000
  ---------------------------------------------------
  free energy    TOTEN  =      -657.98920205 eV

  energy without entropy =     -657.98920205  energy(sigma->0) =     -657.98920205


--------------------------------------------------------------------------------------------------------




--------------------------------------- Iteration      1(   9)  ---------------------------------------


    POTLOK:  cpu time      0.2736: real time      0.3379
    SETDIJ:  cpu time      0.9108: real time      0.9132
     EDDAV:  cpu time    102.6054: real time    102.8639
       DOS:  cpu time      0.0067: real time      0.0067
    CHARGE:  cpu time      3.9320: real time      3.9419
    MIXING:  cpu time      0.0049: real time      0.0049
    --------------------------------------------
      LOOP:  cpu time    107.7334: real time    108.0684

 eigenvalue-minimisations  : 35860
 total energy-change (2. order) :-0.5261207E+02  (-0.7695098E+01)
 number of electron     810.0000010 magnetization       4.7521010
 augmentation part      208.6272972 magnetization       3.7943652

 Broyden mixing:
  rms(total) = 0.51109E+00    rms(broyden)= 0.51096E+00
  rms(prec ) = 0.62451E+00
  weight for this iteration     100.00

 eigenvalues of (default mixing * dielectric matrix)
  average eigenvalue GAMMA=   1.1633
  1.8442  1.4619  0.7591  0.5881

 Free energy of the ion-electron system (eV)
  ---------------------------------------------------
  alpha Z        PSCENC =      2569.55853878
  Ewald energy   TEWEN  =    -43369.32160377
  -Hartree energ DENC   =    -27797.29794948
  -exchange      EXHF   =         0.00000000
  -V(xc)+E(xc)   XCENC  =      3788.57133926
  PAW double counting   =     60902.12167834   -61311.65405597
  entropy T*S    EENTRO =        -0.00000000
  eigenvalues    EBANDS =    -10763.02132353
  atomic energy  EATOM  =     75270.44210491
  Solvation  Ediel_sol  =         0.00000000
  ---------------------------------------------------
  free energy    TOTEN  =      -710.60127147 eV

  energy without entropy =     -710.60127147  energy(sigma->0) =     -710.60127147


--------------------------------------------------------------------------------------------------------




--------------------------------------- Iteration      1(  10)  ---------------------------------------


    POTLOK:  cpu time      0.2514: real time      0.2929
    SETDIJ:  cpu time      0.8883: real time      0.8904
     EDDAV:  cpu time    105.4146: real time    105.6821
       DOS:  cpu time      0.0027: real time      0.0027
    CHARGE:  cpu time      3.9715: real time      3.9827
    MIXING:  cpu time      0.0051: real time      0.0051
    --------------------------------------------
      LOOP:  cpu time    110.5336: real time    110.8559

 eigenvalue-minimisations  : 37160
 total energy-change (2. order) :-0.8659601E+01  (-0.1354567E+01)
 number of electron     810.0000010 magnetization       1.8996454
 augmentation part      209.0790046 magnetization       1.5571429

 Broyden mixing:
  rms(total) = 0.19676E+00    rms(broyden)= 0.19669E+00
  rms(prec ) = 0.22354E+00
  weight for this iteration     100.00

 eigenvalues of (default mixing * dielectric matrix)
  average eigenvalue GAMMA=   1.2154
  2.1715  1.5830  0.9608  0.7709  0.5908

 Free energy of the ion-electron system (eV)
  ---------------------------------------------------
  alpha Z        PSCENC =      2569.55853878
  Ewald energy   TEWEN  =    -43369.32160377
  -Hartree energ DENC   =    -27756.35129831
  -exchange      EXHF   =         0.00000000
  -V(xc)+E(xc)   XCENC  =      3783.61949271
  PAW double counting   =     61019.90226485   -61434.51539093
  entropy T*S    EENTRO =        -0.00000000
  eigenvalues    EBANDS =    -10802.59498056
  atomic energy  EATOM  =     75270.44210491
  Solvation  Ediel_sol  =         0.00000000
  ---------------------------------------------------
  free energy    TOTEN  =      -719.26087231 eV

  energy without entropy =     -719.26087231  energy(sigma->0) =     -719.26087231


--------------------------------------------------------------------------------------------------------




--------------------------------------- Iteration      1(  11)  ---------------------------------------


    POTLOK:  cpu time      0.1763: real time      0.2239
    SETDIJ:  cpu time      0.8960: real time      0.8985
     EDDAV:  cpu time    103.2297: real time    103.4896
       DOS:  cpu time      0.0029: real time      0.0029
    CHARGE:  cpu time      3.9781: real time      3.9879
    MIXING:  cpu time      0.0053: real time      0.0053
    --------------------------------------------
      LOOP:  cpu time    108.2883: real time    108.6082

 eigenvalue-minimisations  : 35750
 total energy-change (2. order) :-0.2197853E+01  (-0.3713744E+00)
 number of electron     810.0000010 magnetization       0.5626486
 augmentation part      209.0902519 magnetization       0.4443546

 Broyden mixing:
  rms(total) = 0.98460E-01    rms(broyden)= 0.98424E-01
  rms(prec ) = 0.11905E+00
  weight for this iteration     100.00

 eigenvalues of (default mixing * dielectric matrix)
  average eigenvalue GAMMA=   1.2413
  2.5521  1.3923  1.3923  0.7978  0.7097  0.6038

 Free energy of the ion-electron system (eV)
  ---------------------------------------------------
  alpha Z        PSCENC =      2569.55853878
  Ewald energy   TEWEN  =    -43369.32160377
  -Hartree energ DENC   =    -27720.00776478
  -exchange      EXHF   =         0.00000000
  -V(xc)+E(xc)   XCENC  =      3781.35359084
  PAW double counting   =     60973.29016663   -61389.87501372
  entropy T*S    EENTRO =        -0.00000000
  eigenvalues    EBANDS =    -10836.89874393
  atomic energy  EATOM  =     75270.44210491
  Solvation  Ediel_sol  =         0.00000000
  ---------------------------------------------------
  free energy    TOTEN  =      -721.45872504 eV

  energy without entropy =     -721.45872504  energy(sigma->0) =     -721.45872504


--------------------------------------------------------------------------------------------------------




--------------------------------------- Iteration      1(  12)  ---------------------------------------


    POTLOK:  cpu time      0.2055: real time      0.3660
    SETDIJ:  cpu time      0.8851: real time      0.8873
     EDDAV:  cpu time     97.4406: real time     97.7086
       DOS:  cpu time      0.0111: real time      0.0111
    CHARGE:  cpu time      3.9892: real time      3.9995
    MIXING:  cpu time      0.0054: real time      0.0065
    --------------------------------------------
      LOOP:  cpu time    102.5370: real time    102.9790

 eigenvalue-minimisations  : 33500
 total energy-change (2. order) :-0.1796461E-01  (-0.2519399E-01)
 number of electron     810.0000010 magnetization       0.2793700
 augmentation part      209.1260594 magnetization       0.2434476

 Broyden mixing:
  rms(total) = 0.45302E-01    rms(broyden)= 0.45293E-01
  rms(prec ) = 0.56507E-01
  weight for this iteration     100.00

 eigenvalues of (default mixing * dielectric matrix)
  average eigenvalue GAMMA=   1.2182
  2.5363  1.5107  1.5107  0.8309  0.8309  0.5744  0.7339

 Free energy of the ion-electron system (eV)
  ---------------------------------------------------
  alpha Z        PSCENC =      2569.55853878
  Ewald energy   TEWEN  =    -43369.32160377
  -Hartree energ DENC   =    -27692.97256420
  -exchange      EXHF   =         0.00000000
  -V(xc)+E(xc)   XCENC  =      3780.33203007
  PAW double counting   =     60895.05744805   -61312.07184791
  entropy T*S    EENTRO =        -0.00000000
  eigenvalues    EBANDS =    -10862.50079556
  atomic energy  EATOM  =     75270.44210491
  Solvation  Ediel_sol  =         0.00000000
  ---------------------------------------------------
  free energy    TOTEN  =      -721.47668964 eV

  energy without entropy =     -721.47668964  energy(sigma->0) =     -721.47668964


--------------------------------------------------------------------------------------------------------




--------------------------------------- Iteration      1(  13)  ---------------------------------------


    POTLOK:  cpu time      0.2392: real time      0.3330
    SETDIJ:  cpu time      0.8908: real time      0.8931
     EDDAV:  cpu time     99.1152: real time     99.3684
       DOS:  cpu time      0.0030: real time      0.0030
    CHARGE:  cpu time      4.0093: real time      4.0193
    MIXING:  cpu time      0.0052: real time      0.0052
    --------------------------------------------
      LOOP:  cpu time    104.2626: real time    104.6220

 eigenvalue-minimisations  : 34230
 total energy-change (2. order) :-0.1994135E-02  (-0.5222404E-02)
 number of electron     810.0000010 magnetization       0.0116750
 augmentation part      209.1132902 magnetization      -0.0062055

 Broyden mixing:
  rms(total) = 0.22005E-01    rms(broyden)= 0.22003E-01
  rms(prec ) = 0.27545E-01
  weight for this iteration     100.00

 eigenvalues of (default mixing * dielectric matrix)
  average eigenvalue GAMMA=   1.2683
  2.6617  2.3547  1.1585  0.9598  0.9598  0.8161  0.5830  0.6532

 Free energy of the ion-electron system (eV)
  ---------------------------------------------------
  alpha Z        PSCENC =      2569.55853878
  Ewald energy   TEWEN  =    -43369.32160377
  -Hartree energ DENC   =    -27682.74604120
  -exchange      EXHF   =         0.00000000
  -V(xc)+E(xc)   XCENC  =      3779.93171570
  PAW double counting   =     60863.32249202   -61279.88018186
  entropy T*S    EENTRO =        -0.00000000
  eigenvalues    EBANDS =    -10872.78570836
  atomic energy  EATOM  =     75270.44210491
  Solvation  Ediel_sol  =         0.00000000
  ---------------------------------------------------
  free energy    TOTEN  =      -721.47868378 eV

  energy without entropy =     -721.47868378  energy(sigma->0) =     -721.47868378


--------------------------------------------------------------------------------------------------------




--------------------------------------- Iteration      1(  14)  ---------------------------------------


    POTLOK:  cpu time      0.1602: real time      0.1649
    SETDIJ:  cpu time      0.8960: real time      0.8981
     EDDAV:  cpu time     97.8498: real time     98.0967
       DOS:  cpu time      0.0062: real time      0.0062
    CHARGE:  cpu time      3.9993: real time      4.0093
    MIXING:  cpu time      0.0068: real time      0.0068
    --------------------------------------------
      LOOP:  cpu time    102.9182: real time    103.1819

 eigenvalue-minimisations  : 33550
 total energy-change (2. order) : 0.6041399E-02  (-0.1343669E-02)
 number of electron     810.0000010 magnetization       0.0028068
 augmentation part      209.1250172 magnetization      -0.0018894

 Broyden mixing:
  rms(total) = 0.76633E-02    rms(broyden)= 0.76611E-02
  rms(prec ) = 0.98608E-02
  weight for this iteration     100.00

[...]
      3.99256      3.86957      7.78636         0.001757     -0.000971     -0.002038
      3.73171      7.78877      0.08904         0.001900     -0.000831     -0.000805
      3.85747      7.62423      3.73586        -0.000829      0.000169     -0.004307
      3.99140      7.82879      7.72605         0.000045     -0.001981      0.000422
      7.81750      0.02238     11.47743        -0.000288      0.000815     -0.000358
      7.70747      0.14633      3.86449         0.003621      0.000559      0.001109
      7.77755      0.01303      7.84936         0.001287      0.002002     -0.000756
      7.80348      3.96566     11.46651        -0.000262     -0.000291      0.000076
      7.59245      3.77738      3.87011         0.001375      0.001997      0.000634
      7.62825      3.98539      7.84349        -0.000040      0.000874      0.000717
      7.71443      7.61711     11.45140         0.000142      0.000224      0.000303
      7.81401      7.74285      3.85953        -0.001411      0.001140     -0.000229
      7.64134      7.60969      7.84138         0.000221      0.000807     -0.000082
     11.42174      1.93723      3.86716        -0.002967      0.008656      0.001566
     11.47314      5.80255     11.56794        -0.002362     -0.001554      0.002173
     11.47264      5.80262      7.76183         0.000325     -0.000674      0.001579
      3.82073      5.79099      3.90582        -0.001418     -0.003976     -0.002795
      3.87401      9.68597     11.49099         0.000438      0.007582     -0.001159
      3.84867      9.67032      7.82942         0.002840     -0.001997      0.000124
      7.80673      1.91689      3.85993         0.000566      0.001968      0.000232
      7.76042      5.80739      0.00386         0.002645      0.000095     -0.003940
      7.85298      5.80020      7.72332         0.002850      0.002107      0.005175
      1.92781     11.58014      3.87205         0.006637      0.002955     -0.001837
      1.91799      7.70959     11.58219        -0.003696     -0.007446     -0.001411
      5.78711      3.84444      3.94483        -0.002628      0.001278     -0.000980
      5.75712      3.91535      7.58102        -0.001048     -0.000885     -0.003105
      5.77696      7.67090      7.71028        -0.000197     -0.001886     -0.001695
      9.62347      0.06659     11.51978         0.000589     -0.000202     -0.001260
      9.65157     11.57328      7.74678         0.001740     -0.000771      0.001662
      9.64558      3.72552     -0.00482         0.002392     -0.003949     -0.001794
      9.63406      7.70942      3.83627        -0.000136      0.001964     -0.002458
     11.52403     11.55552      1.92941        -0.005244      0.000847     -0.005133
     11.54909      3.90616      5.77643        -0.000254      0.002761      0.000229
     11.43603      7.81702      9.63792        -0.002787      0.002694      0.002610
      3.87286      0.01106      5.79419        -0.001325     -0.003972     -0.001534
      3.90752      3.88179      9.67405         0.001490     -0.004432     -0.003427
      3.89767      7.74215      1.94782        -0.001486     -0.004487      0.002403
      7.63343      0.03369      9.64704        -0.005038      0.004203      0.001932
      7.60970      3.76810      9.65697        -0.001456     -0.002631      0.000372
      7.82521      7.83218      9.66083         0.003962      0.005050     -0.000261
      0.13252      1.93720     11.57614         0.001485      0.000753      0.004943
      0.04308      1.91555      7.72962         0.000920      0.000916     -0.001364
      0.09403      5.82198      3.79997         0.000449     -0.001389     -0.003521
      0.02421      9.67758     11.59410         0.002174      0.000159      0.001410
     11.54267      9.64331      3.94154         0.001756     -0.001371      0.003151
      0.09597      9.67200      7.64957        -0.001247     -0.000097      0.001017
      3.83460      1.92232      0.05801        -0.002504     -0.000823     -0.001872
      3.86880      1.93935      3.78747         0.001401     -0.000880     -0.000426
      3.82099      1.93186      7.74158         0.002497     -0.001493     -0.005331
      3.91698      5.76327      0.05196         0.004227     -0.001690     -0.003203
      3.73089      5.79589      7.61940         0.001597     -0.001419     -0.003646
      3.93098      9.65200      3.86970        -0.003039     -0.000034     -0.004080
      7.60536      1.91568      0.14373        -0.000074     -0.000143      0.004439
      7.68816      1.92148      7.57692         0.004517      0.002025     -0.000408
      7.66773      5.82259      3.86247        -0.000683      0.001020      0.000877
      7.64343      9.67770      0.09270         0.000265      0.000905      0.000635
      7.65327      9.65760      3.86282        -0.002664      0.001214      0.000470
      7.64837      9.68616      7.63917        -0.004286      0.001655      0.002167
      1.93106      0.02059     11.56900        -0.000524     -0.003461      0.003981
      1.90026      0.04868      7.74623         0.001619     -0.004194      0.000816
      1.94915      3.87994      0.02058        -0.000417      0.005934     -0.004753
      1.92578      3.79505      3.81368         0.000876     -0.001925      0.002255
      1.92511      3.84734      7.75482         0.000472      0.001548     -0.001561
      1.90215      7.81340      3.86556        -0.000552     -0.001613      0.002576
      1.91885      7.71288      7.74149        -0.000438      0.001451      0.002975
      5.78278      0.05245      0.06596        -0.001078     -0.003850      0.003205
      5.78893      0.02670      3.79353        -0.001761      0.003086     -0.000785
      5.77931      0.06711      7.71128         0.000490      0.002038     -0.001369
      5.76931      3.82549      0.13158        -0.000222     -0.000745     -0.001782
      5.76975      7.72670     11.53400         0.002713     -0.002601     -0.001932
      5.81026      7.72326      3.95423        -0.001927      0.001587     -0.001818
      9.61462     11.42222      3.94987        -0.001969      0.002959      0.005640
      9.62147      4.04674      3.76722         0.000786      0.002038      0.000593
      9.64800      3.69787      7.77941        -0.000191      0.005155      0.002039
      9.63877      7.87207      0.19499         0.000941      0.000219      0.000593
      9.64402      7.91494      7.53719        -0.000771      0.000418      0.003406
      0.00444     11.57622      5.82106         0.002592      0.004601      0.003037
      0.08011     11.55408      9.66065        -0.001016      0.002695      0.002089
      0.04945      3.86094      1.94599         0.000281     -0.001823     -0.000613
      0.05542      3.77821      9.64693        -0.000287      0.001332      0.000159
      0.03876      7.80306      1.96901         0.002595      0.000467     -0.000491
      0.05353      7.69211      5.77316        -0.001688     -0.007373     -0.000025
      3.87203     11.55286      1.93131        -0.005913     -0.002855     -0.000414
      3.88430      0.15510      9.66076        -0.000379     -0.005709     -0.000046
      3.83583      3.85910      1.92490        -0.002575     -0.002826     -0.001108
      3.69427      3.76277      5.78437         0.003164     -0.000284     -0.001254
      3.79131      7.80083      5.77944         0.000546     -0.002360     -0.000311
      3.85062      7.56702      9.65869         0.000840     -0.002980     -0.002061
      7.74812     11.53070      1.96025         0.005889      0.001359      0.000534
      7.64311     11.53999      5.78453         0.000361      0.003018      0.000822
      7.68385      3.88737      1.95531         0.001075      0.003456      0.000022
      7.86985      3.88280      5.76949        -0.001292      0.004279      0.001114
      7.60398      7.76376      1.96610        -0.001075     -0.002317     -0.000855
      7.71723      7.76671      5.75925        -0.000960     -0.000838      0.000808
 -----------------------------------------------------------------------------------
    total drift:                                0.003552      0.000250      0.003938


--------------------------------------------------------------------------------------------------------



  FREE ENERGIE OF THE ION-ELECTRON SYSTEM (eV)
  ---------------------------------------------------
  free  energy   TOTEN  =      -721.47321444 eV

  energy  without entropy=     -721.47321444  energy(sigma->0) =     -721.47321444
 


--------------------------------------------------------------------------------------------------------


    POTLOK:  cpu time      1.0501: real time      1.0528


--------------------------------------------------------------------------------------------------------


 Quasi-Newton relaxation of ions (Broydens 2nd method)
  g(Force)  = 0.969E-04   g(Stress)= 0.954E-04

 Reset! Starting new Quasi-Newton update for ions 


--------------------------------------------------------------------------------------------------------


  
 reached required accuracy - stopping structural energy minimisation
 writing wavefunctions
     LOOP+:  cpu time   2175.0606: real time   2182.3100
    4ORBIT:  cpu time      0.0000: real time      0.0000



 total charge

# of ion       s       p       d       tot
------------------------------------------
    1        0.324   6.462   1.791   8.577
    2        0.330   6.463   1.816   8.610
    3        0.317   6.469   1.745   8.531
    4        0.321   6.454   1.800   8.575
    5        0.321   6.456   1.790   8.567
    6        0.322   6.459   1.775   8.555
    7        0.328   6.458   1.800   8.586
    8        0.318   6.475   1.713   8.505
    9        0.323   6.456   1.802   8.582
   10        0.316   6.462   1.777   8.556
   11        0.323   6.458   1.799   8.579
   12        0.321   6.459   1.787   8.567
   13        0.316   6.464   1.754   8.535
   14        0.320   6.460   1.761   8.540
   15        0.318   6.456   1.774   8.549
   16        0.325   6.460   1.786   8.572
   17        0.318   6.457   1.783   8.559
   18        0.319   6.452   1.777   8.548
   19        0.323   6.462   1.779   8.564
   20        0.318   6.467   1.760   8.545
   21        0.322   6.464   1.763   8.550
   22        0.328   6.455   1.807   8.589
   23        0.321   6.463   1.759   8.543
   24        0.326   6.453   1.801   8.580
   25        0.321   6.450   1.805   8.577
   26        0.318   6.475   1.719   8.512
   27        0.327   6.454   1.808   8.588
   28        1.570   3.477   0.000   5.046
   29        1.568   3.474   0.000   5.042
   30        1.569   3.476   0.000   5.045
   31        1.570   3.472   0.000   5.042
   32        1.572   3.468   0.000   5.039
   33        1.569   3.471   0.000   5.040
   34        1.571   3.471   0.000   5.042
   35        1.568   3.473   0.000   5.041
   36        1.569   3.472   0.000   5.041
   37        1.570   3.477   0.000   5.047
   38        1.569   3.472   0.000   5.042
   39        1.570   3.470   0.000   5.039
   40        1.570   3.467   0.000   5.037
   41        1.569   3.471   0.000   5.040
   42        1.570   3.476   0.000   5.046
   43        1.570   3.471   0.000   5.041
   44        1.570   3.475   0.000   5.045
   45        1.571   3.471   0.000   5.041
   46        1.570   3.478   0.000   5.048
   47        1.569   3.473   0.000   5.042
   48        1.570   3.475   0.000   5.045
   49        1.569   3.476   0.000   5.046
   50        1.570   3.467   0.000   5.037
   51        1.570   3.470   0.000   5.040
   52        1.570   3.474   0.000   5.044
   53        1.569   3.473   0.000   5.042
   54        1.569   3.475   0.000   5.044
   55        1.730   4.379   0.000   6.109
   56        1.730   4.378   0.000   6.108
   57        1.730   4.373   0.000   6.104
   58        1.730   4.381   0.000   6.111
   59        1.731   4.379   0.000   6.110
   60        1.730   4.379   0.000   6.109
   61        1.730   4.378   0.000   6.108
   62        1.729   4.380   0.000   6.110
   63        1.730   4.380   0.000   6.110
   64        1.730   4.382   0.000   6.112
   65        1.729   4.378   0.000   6.107
   66        1.729   4.382   0.000   6.111
   67        1.730   4.377   0.000   6.108
   68        1.730   4.376   0.000   6.106
   69        1.730   4.380   0.000   6.110
   70        1.730   4.376   0.000   6.106
   71        1.730   4.379   0.000   6.109
   72        1.730   4.376   0.000   6.106
   73        1.730   4.381   0.000   6.111
   74        1.730   4.382   0.000   6.112
   75        1.730   4.377   0.000   6.107
   76        1.729   4.381   0.000   6.110
   77        1.730   4.379   0.000   6.108
   78        1.729   4.382   0.000   6.111
   79        1.729   4.377   0.000   6.107
   80        1.730   4.382   0.000   6.112
   81        1.730   4.378   0.000   6.107
   82        1.730   4.385   0.000   6.115
   83        1.730   4.379   0.000   6.109
   84        1.729   4.379   0.000   6.108
   85        1.730   4.382   0.000   6.112
   86        1.730   4.378   0.000   6.108
   87        1.730   4.378   0.000   6.107
   88        1.730   4.380   0.000   6.109
   89        1.729   4.377   0.000   6.107
   90        1.730   4.378   0.000   6.108
   91        1.730   4.381   0.000   6.111
   92        1.730   4.377   0.000   6.107
   93        1.729   4.381   0.000   6.110
   94        1.729   4.380   0.000   6.109
   95        1.731   4.376   0.000   6.107
   96        1.731   4.375   0.000   6.106
   97        1.729   4.379   0.000   6.108
   98        1.730   4.377   0.000   6.107
   99        1.730   4.378   0.000   6.108
  100        1.730   4.380   0.000   6.109
  101        1.729   4.378   0.000   6.107
  102        1.729   4.379   0.000   6.108
  103        1.730   4.379   0.000   6.109
  104        1.730   4.378   0.000   6.108
  105        1.730   4.377   0.000   6.107
  106        1.730   4.375   0.000   6.105
  107        1.731   4.373   0.000   6.104
  108        1.731   4.376   0.000   6.108
--------------------------------------------------
tot        144.476 504.634  48.033 697.143



 magnetization (x)

# of ion       s       p       d       tot
------------------------------------------
    1       -0.000  -0.000   0.000  -0.000
    2       -0.000  -0.000  -0.000  -0.000
    3       -0.000  -0.000   0.000  -0.000
    4       -0.000  -0.000  -0.000  -0.000
    5       -0.000  -0.000   0.000  -0.000
    6       -0.000  -0.000   0.000   0.000
    7       -0.000  -0.000  -0.000  -0.000
    8       -0.000  -0.000   0.000   0.000
    9       -0.000  -0.000   0.000  -0.000
   10       -0.000  -0.000   0.000  -0.000
   11       -0.000  -0.000  -0.000  -0.000
   12       -0.000  -0.000  -0.000  -0.000
   13       -0.000  -0.000   0.000   0.000
   14       -0.000  -0.000  -0.000  -0.000
   15       -0.000  -0.000  -0.000  -0.000
   16       -0.000  -0.000  -0.000  -0.000
   17       -0.000  -0.000  -0.000  -0.000
   18       -0.000  -0.000  -0.000  -0.000
   19       -0.000  -0.000   0.000  -0.000
   20       -0.000  -0.000   0.000   0.000
   21       -0.000  -0.000   0.000  -0.000
   22       -0.000  -0.000  -0.000  -0.000
   23       -0.000  -0.000   0.000   0.000
   24       -0.000  -0.000  -0.000  -0.000
   25       -0.000  -0.000  -0.000  -0.000
   26       -0.000  -0.000   0.000   0.000
   27       -0.000  -0.000  -0.000  -0.000
   28        0.000  -0.000   0.000   0.000
   29        0.000   0.000   0.000   0.000
   30        0.000  -0.000   0.000  -0.000
   31        0.000   0.000   0.000   0.000
   32        0.000   0.000   0.000   0.000
   33        0.000   0.000   0.000   0.000
   34        0.000  -0.000   0.000  -0.000
   35        0.000   0.000   0.000   0.000
   36        0.000   0.000   0.000   0.000
   37        0.000   0.000   0.000   0.000
   38        0.000   0.000   0.000   0.000
   39        0.000  -0.000   0.000  -0.000
   40        0.000   0.000   0.000   0.000
   41        0.000   0.000   0.000   0.000
   42        0.000   0.000   0.000   0.000
   43        0.000   0.000   0.000   0.000
   44        0.000   0.000   0.000   0.000
   45       -0.000   0.000   0.000  -0.000
   46        0.000   0.000   0.000   0.000
   47        0.000  -0.000   0.000  -0.000
   48        0.000   0.000   0.000   0.000
   49       -0.000   0.000   0.000   0.000
   50        0.000  -0.000   0.000  -0.000
   51        0.000   0.000   0.000   0.000
   52        0.000  -0.000   0.000  -0.000
   53        0.000   0.000   0.000   0.000
   54        0.000   0.000   0.000   0.000
   55        0.000   0.000   0.000   0.000
   56       -0.000   0.000   0.000  -0.000
   57       -0.000  -0.000   0.000  -0.000
   58        0.000   0.000   0.000   0.000
   59        0.000   0.000   0.000   0.000
   60        0.000   0.000   0.000   0.000
   61        0.000  -0.000   0.000  -0.000
   62        0.000   0.000   0.000   0.000
   63        0.000   0.000   0.000   0.000
   64        0.000   0.000   0.000   0.000
   65        0.000  -0.000   0.000   0.000
   66        0.000   0.000   0.000   0.000
   67        0.000   0.000   0.000   0.000
   68        0.000   0.000   0.000   0.000
   69       -0.000  -0.000   0.000  -0.000
   70        0.000   0.000   0.000   0.000
   71       -0.000  -0.000   0.000  -0.000
   72        0.000   0.000   0.000   0.000
   73        0.000   0.000   0.000   0.000
   74        0.000   0.000   0.000   0.000
   75        0.000  -0.000   0.000  -0.000
   76        0.000   0.000   0.000   0.000
   77        0.000   0.000   0.000   0.000
   78        0.000   0.000   0.000   0.000
   79        0.000   0.000   0.000   0.000
   80        0.000   0.000   0.000   0.000
   81        0.000   0.000   0.000   0.000
   82        0.000   0.000   0.000   0.000
   83        0.000   0.000   0.000   0.000
   84        0.000   0.000   0.000   0.000
   85        0.000   0.000   0.000   0.000
   86        0.000   0.000   0.000   0.000
   87        0.000   0.000   0.000   0.000
   88        0.000   0.000   0.000   0.000
   89        0.000   0.000   0.000   0.000
   90        0.000   0.000   0.000   0.000
   91        0.000   0.000   0.000   0.000
   92       -0.000  -0.000   0.000  -0.000
   93        0.000   0.000   0.000   0.000
   94        0.000  -0.000   0.000   0.000
   95        0.000   0.000   0.000   0.000
   96       -0.000  -0.000   0.000  -0.000
   97        0.000   0.000   0.000   0.000
   98        0.000   0.000   0.000   0.000
   99        0.000   0.000   0.000   0.000
  100        0.000   0.000   0.000   0.000
  101        0.000   0.000   0.000   0.000
  102        0.000   0.000   0.000   0.000
  103        0.000   0.000   0.000   0.000
  104        0.000  -0.000   0.000   0.000
  105        0.000   0.000   0.000   0.000
  106        0.000   0.000   0.000   0.000
  107       -0.000  -0.000   0.000  -0.000
  108        0.000   0.000   0.000   0.000
--------------------------------------------------
tot          0.000   0.000  -0.000   0.000
 

 total amount of memory used by VASP MPI-rank0   297277. kBytes
=======================================================================

   base      :      30000. kBytes
   nonlr-proj:      25362. kBytes
   fftplans  :      18873. kBytes
   grid      :      21088. kBytes
   one-center:        435. kBytes
   wavefun   :     201519. kBytes
 
  
  
 General timing and accounting informations for this job:
 ========================================================
  
                  Total CPU time used (sec):     2277.638
                            User time (sec):     2249.939
                          System time (sec):       27.699
                         Elapsed time (sec):     2286.276
  
                   Maximum memory used (kb):      885788.
                   Average memory used (kb):          N/A
  
                          Minor page faults:       327224
                          Major page faults:            0
                 Voluntary context switches:        14934
