 vasp.5.4.4.18Apr17-6-g9f103f2a35 (build Apr 30 2017 20:10:35) complex          
  
 executed on             LinuxIFC date 2017.09.28  16:22:39
 running on  128 total cores
 distrk:  each k-point on  128 cores,    1 groups
 distr:  one band on NCORES_PER_BAND=   8 cores,   16 groups


--------------------------------------------------------------------------------------------------------


 INCAR:
 POTCAR:   PAW_PBE Ti_pv 07Sep2000                
 POTCAR:   PAW_PBE O 08Apr2002                    
 POTCAR:    PAW_PBE F 08Apr2002                   
 POTCAR:   PAW_PBE Ti_pv 07Sep2000                
   VRHFIN =Ti: d3 s1                                                            
   LEXCH  = PE                                                                  
   EATOM  =  1042.3781 eV,   76.6126 Ry                                         
                                                                                
   TITEL  = PAW_PBE Ti_pv 07Sep2000                                             
   LULTRA =        F    use ultrasoft PP ?                                      
   IUNSCR =        1    unscreen: 0-lin 1-nonlin 2-no                           
   RPACOR =    2.200    partial core radius                                     
   POMASS =   47.880; ZVAL   =   10.000    mass and valenz                      
   RCORE  =    2.500    outmost cutoff radius                                   
   RWIGS  =    2.500; RWIGS  =    1.323    wigner-seitz radius (au A)           
   ENMAX  =  222.338; ENMIN  =  166.753 eV                                      
   RCLOC  =    1.701    cutoff for local pot                                    
   LCOR   =        T    correct aug charges                                     
   LPAW   =        T    paw PP                                                  
   EAUG   =  482.848                                                            
   DEXC   =    -.008                                                            
   RMAX   =    3.092    core radius for proj-oper                               
   RAUG   =    1.300    factor for augmentation sphere                          
   RDEP   =    2.538    radius for radial grids                                 
   QCUT   =   -4.042; QGAM   =    8.085    optimization parameters              
                                                                                
   Description                                                                  
     l     E      TYP  RCUT    TYP  RCUT                                        
     1   .000     23  2.300                                                     
     1  -.100     23  2.300                                                     
     2   .000     23  2.500                                                     
     2   .000     23  2.500                                                     
     0   .000     23  2.500                                                     
     0  1.500     23  2.500                                                     
     3   .000      7   .000                                                     
  local pseudopotential read in
  partial core-charges read in
  atomic valenz-charges read in
  non local Contribution for L=           1  read in
    real space projection operators read in
  non local Contribution for L=           1  read in
    real space projection operators read in
  non local Contribution for L=           2  read in
    real space projection operators read in
  non local Contribution for L=           2  read in
    real space projection operators read in
  non local Contribution for L=           0  read in
    real space projection operators read in
  non local Contribution for L=           0  read in
    real space projection operators read in
    PAW grid and wavefunctions read in
 
   number of l-projection  operators is LMAX  =           6
   number of lm-projection operators is LMMAX =          18
 
 POTCAR:   PAW_PBE O 08Apr2002                    
   VRHFIN =O: s2p4                                                              
   LEXCH  = PE                                                                  
   EATOM  =   432.3788 eV,   31.7789 Ry                                         
                                                                                
   TITEL  = PAW_PBE O 08Apr2002                                                 
   LULTRA =        F    use ultrasoft PP ?                                      
   IUNSCR =        0    unscreen: 0-lin 1-nonlin 2-no                           
   RPACOR =     .000    partial core radius                                     
   POMASS =   16.000; ZVAL   =    6.000    mass and valenz                      
   RCORE  =    1.520    outmost cutoff radius                                   
   RWIGS  =    1.550; RWIGS  =     .820    wigner-seitz radius (au A)           
   ENMAX  =  400.000; ENMIN  =  300.000 eV                                      
   ICORE  =        2    local potential                                         
   LCOR   =        T    correct aug charges                                     
   LPAW   =        T    paw PP                                                  
   EAUG   =  605.392                                                            
   DEXC   =     .000                                                            
   RMAX   =    2.264    core radius for proj-oper                               
   RAUG   =    1.300    factor for augmentation sphere                          
   RDEP   =    1.550    radius for radial grids                                 
   QCUT   =   -5.520; QGAM   =   11.041    optimization parameters              
                                                                                
   Description                                                                  
     l     E      TYP  RCUT    TYP  RCUT                                        
     0   .000     23  1.200                                                     
     0  -.700     23  1.200                                                     
     1   .000     23  1.520                                                     
     1   .600     23  1.520                                                     
     2   .000      7  1.500                                                     
  local pseudopotential read in
  atomic valenz-charges read in
  non local Contribution for L=           0  read in
    real space projection operators read in
  non local Contribution for L=           0  read in
    real space projection operators read in
  non local Contribution for L=           1  read in
    real space projection operators read in
  non local Contribution for L=           1  read in
    real space projection operators read in
    PAW grid and wavefunctions read in
 
   number of l-projection  operators is LMAX  =           4
   number of lm-projection operators is LMMAX =           8
 
 POTCAR:    PAW_PBE F 08Apr2002                   
   VRHFIN =F: s2p5                                                              
   LEXCH  = PE                                                                  
   EATOM  =   659.6475 eV,   48.4827 Ry                                         
                                                                                
   TITEL  = PAW_PBE F 08Apr2002                                                 
   LULTRA =        F    use ultrasoft PP ?                                      
   IUNSCR =        1    unscreen: 0-lin 1-nonlin 2-no                           
   RPACOR =    1.200    partial core radius                                     
   POMASS =   18.998; ZVAL   =    7.000    mass and valenz                      
   RCORE  =    1.520    outmost cutoff radius                                   
   RWIGS  =    1.500; RWIGS  =    0.794    wigner-seitz radius (au A)           
   ENMAX  =  400.000; ENMIN  =  300.000 eV                                      
   ICORE  =        2    local potential                                         
   LCOR   =        T    correct aug charges                                     
   LPAW   =        T    paw PP                                                  
   EAUG   =  613.614                                                            
   RMAX   =    1.555    core radius for proj-oper                               
   RAUG   =    1.300    factor for augmentation sphere                          
   RDEP   =    1.539    radius for radial grids                                 
   RDEPT  =    1.299    core radius for aug-charge                              
                                                                                
   Atomic configuration                                                         
    4 entries                                                                   
     n  l   j            E        occ.                                          
     1  0  0.50      -663.3661   2.0000                                         
     2  0  0.50       -29.8995   2.0000                                         
     2  1  0.50       -11.1114   5.0000                                         
     3  2  1.50       -10.8847   0.0000                                         
   Description                                                                  
     l       E           TYP  RCUT    TYP  RCUT                                 
     0    -29.8995018     23  1.200                                             
     0     -9.5240782     23  1.200                                             
     1    -11.1113914     23  1.520                                             
     1      1.3605826     23  1.520                                             
     2    -10.8846608      7  1.500                                             
  local pseudopotential read in
  partial core-charges read in
  partial kinetic energy density read in
  atomic valenz-charges read in
  non local Contribution for L=           0  read in
    real space projection operators read in
  non local Contribution for L=           0  read in
    real space projection operators read in
  non local Contribution for L=           1  read in
    real space projection operators read in
  non local Contribution for L=           1  read in
    real space projection operators read in
    PAW grid and wavefunctions read in
 
   number of l-projection  operators is LMAX  =           4
   number of lm-projection operators is LMMAX =           8
 
 Optimization of the real space projectors (new method)

 maximal supplied QI-value         = 15.12
 optimisation between [QCUT,QGAM] = [ 13.45, 27.06] = [ 50.69,205.06] Ry 
 Optimized for a Real-space Cutoff    1.49 Angstroem

   l    n(q)    QCUT    max X(q) W(low)/X(q) W(high)/X(q)  e(spline) 
   1     12    13.455     4.841    0.13E-05    0.83E-06    0.56E-07
   1     12    13.455     5.701    0.32E-04    0.25E-04    0.17E-06
   2     11    13.455     4.569    0.64E-05    0.34E-05    0.50E-07
   2     11    13.455    32.276    0.49E-04    0.38E-04    0.46E-06
   0     12    13.455    30.046    0.17E-04    0.41E-05    0.51E-07
   0     12    13.455    45.433    0.12E-04    0.27E-04    0.38E-06
 Optimization of the real space projectors (new method)

 maximal supplied QI-value         = 24.76
 optimisation between [QCUT,QGAM] = [ 13.37, 26.98] = [ 50.04,203.89] Ry 
 Optimized for a Real-space Cutoff    1.17 Angstroem

   l    n(q)    QCUT    max X(q) W(low)/X(q) W(high)/X(q)  e(spline) 
   0      9    13.368     4.192    0.20E-04    0.58E-05    0.56E-07
   0      9    13.368     8.473    0.60E-04    0.52E-04    0.21E-06
   1      9    13.368     2.474    0.22E-04    0.17E-04    0.28E-07
   1      9    13.368     3.912    0.94E-04    0.97E-04    0.20E-06
 Optimization of the real space projectors (new method)

 maximal supplied QI-value         = 24.76
 optimisation between [QCUT,QGAM] = [ 13.37, 26.98] = [ 50.04,203.89] Ry 
 Optimized for a Real-space Cutoff    1.17 Angstroem

   l    n(q)    QCUT    max X(q) W(low)/X(q) W(high)/X(q)  e(spline) 
   0      9    13.368    14.049    0.39E-04    0.34E-04    0.16E-06
   0      9    13.368     8.945    0.54E-04    0.47E-04    0.20E-06
   1      9    13.368     7.086    0.99E-04    0.10E-03    0.23E-06
   1      9    13.368     6.747    0.86E-04    0.89E-04    0.21E-06

 ----------------------------------------------------------------------------- 
|                                                                             |
|  ADVICE TO THIS USER RUNNING 'VASP/VAMP'   (HEAR YOUR MASTER'S VOICE ...):  |
|                                                                             |
|      You enforced a specific xc-type in the INCAR file,                     |
|      a different type was found on the POTCAR file                          |
|          I HOPE YOU KNOW, WHAT YOU ARE  DOING                               |
|                                                                             |
 ----------------------------------------------------------------------------- 

 PAW_PBE Ti_pv 07Sep2000                :
 energy of atom  1       EATOM=-1042.3781
 kinetic energy error for atom=    0.0006 (will be added to EATOM!!)
 PAW_PBE O 08Apr2002                    :
 energy of atom  2       EATOM= -432.3788
 kinetic energy error for atom=    0.0091 (will be added to EATOM!!)
  PAW_PBE F 08Apr2002                   :
 energy of atom  3       EATOM= -659.6475
 kinetic energy error for atom=    0.0140 (will be added to EATOM!!)
 
 
 POSCAR: Ti64 O64 F128                           
  positions in direct lattice
  velocities in cartesian coordinates
 exchange correlation table for  LEXCH =       14
   RHO(1)=    0.500       N(1)  =     2000
   RHO(2)=  100.500       N(2)  =     4000

 VTST: version 3.1, (03/28/14)

 CHAIN: initializing optimizer
 
 OPT: Using VASP Conjugate-Gradient optimizer
 CHAIN: Read ICHAIN            0
 
 POSCAR: Ti64 O64 F128                           
  positions in direct lattice
  velocities in cartesian coordinates
 


--------------------------------------------------------------------------------------------------------


 ion  position               nearest neighbor table
   1  0.001  0.995  0.995- 112 1.83  67 1.83 170 1.95 198 1.97 216 2.01 129 2.04
   2  0.002  0.991  0.504- 113 1.78 130 1.90 171 1.93 199 1.93 135 1.96 217 2.01
   3  0.004  0.497  0.007-  65 1.83 111 1.84 172 1.93 200 1.97 137 2.01 218 2.01
   4  0.008  0.504  0.506-  88 1.81  66 1.82 227 1.96 219 1.98 136 2.00 201 2.02
   5  0.490  0.005  0.004-  94 1.82 106 1.84 131 1.94 138 1.97 229 2.01 173 2.04
   6  0.499  0.993  0.491- 115 1.82  68 1.83 174 1.95 196 1.96 220 2.01 132 2.02
   7  0.493  0.498  0.992-  70 1.80  95 1.84 228 1.96 221 1.98 175 2.03 133 2.04
   8  0.499  0.494  0.491-  69 1.82 114 1.86 197 1.94 176 1.98 134 2.01 222 2.04
   9  0.006  0.011  0.251- 107 1.80  89 1.82 129 1.92 135 2.01 204 2.05 231 2.05
  10  0.995  0.994  0.758-  67 1.81 117 1.84 205 1.94 177 1.96 223 1.99 130 2.10
  11  0.995  0.499  0.245-  65 1.83  98 1.84 230 1.94 224 1.99 136 2.01 178 2.01
  12  0.001  0.496  0.745-  66 1.84 116 1.84 179 1.92 206 1.98 137 2.00 225 2.03
  13  0.495  0.008  0.255-  68 1.82 108 1.83 202 1.94 180 1.99 234 2.02 131 2.04
  14  0.509  0.003  0.748-  90 1.83 109 1.83 132 1.94 138 1.98 235 2.00 203 2.05
  15  0.493  0.497  0.254-  96 1.81  69 1.85 232 1.96 226 1.98 133 2.00 181 2.04
  16  0.496  0.506  0.753-  97 1.85 110 1.86  70 1.87 134 2.02 182 2.04 233 2.05
  17  0.002  0.257  0.007- 111 1.82  71 1.85 183 1.95 209 1.98 146 2.01 216 2.02
  18  0.005  0.246  0.507-  72 1.83  91 1.84 227 1.97 217 1.98 145 2.02 210 2.03
  19  0.995  0.758  0.002- 101 1.84 112 1.84 139 1.96 147 1.97 218 2.00 184 2.02
  20  0.002  0.757  0.493-  73 1.81 113 1.87 185 1.94 211 1.95 219 1.99 140 2.02
  21  0.491  0.244  1.000- 106 1.82  99 1.83 149 1.95 141 1.96 228 2.01 186 2.05
  22  0.507  0.254  0.500- 114 1.81  92 1.85 142 1.95 148 1.97 207 2.02 220 2.05
  23  0.495  0.752  0.991-  75 1.82 100 1.86 229 1.96 221 1.98 187 2.03 143 2.04
  24  0.502  0.753  0.491-  74 1.83 115 1.85 208 1.96 188 1.96 222 2.00 144 2.01
  25  0.996  0.244  0.246-  71 1.82 107 1.84 214 1.95 189 1.99 145 2.01 230 2.02
  26  0.999  0.256  0.744- 116 1.83  72 1.84 190 1.94 215 1.99 146 2.02 223 2.03
  27  0.996  0.755  0.258-  73 1.84 104 1.88 231 1.93 224 1.94 191 1.97 139 2.00
  28  0.991  0.756  0.748- 105 1.83 117 1.84 140 1.97 147 1.97 225 2.00 192 2.03
  29  0.507  0.240  0.247- 108 1.82  93 1.82 148 1.95 141 1.96 232 2.01 212 2.04
  30  0.493  0.242  0.751- 102 1.81 109 1.84 142 1.95 149 1.97 233 1.99 193 2.07
  31  0.495  0.750  0.254- 103 1.84  74 1.84 234 1.95 226 1.96 143 2.00 194 2.05
  32  0.505  0.742  0.753- 110 1.80  75 1.85 195 1.96 213 1.99 144 2.02 235 2.06
  33  0.258  1.000  0.994-  78 1.82  94 1.83 250 1.95 236 1.96 150 2.04 170 2.04
  34  0.250  0.992  0.493- 122 1.83  77 1.84 196 1.95 171 2.00 237 2.00 151 2.01
  35  0.257  0.496  0.008-  76 1.80  95 1.81 238 1.96 249 1.98 172 2.03 158 2.04
  36  0.242  0.493  0.496-  88 1.82 121 1.84 157 1.92 152 1.97 197 2.02 239 2.03
  37  0.748  0.996  0.996- 124 1.83  80 1.84 173 1.95 198 1.98 240 2.01 153 2.04
  38  0.751  0.005  0.493- 118 1.82  79 1.84 174 1.95 199 1.99 154 2.01 252 2.03
  39  0.747  0.496  0.996-  82 1.83 123 1.84 175 1.93 200 1.97 241 2.02 155 2.02
  40  0.753  0.505  0.493-  81 1.82 119 1.86 201 1.93 176 1.96 251 2.02 156 2.03
  41  0.243  0.004  0.257-  89 1.83  77 1.84 242 1.93 253 1.96 150 2.02 202 2.06
  42  0.253  0.994  0.755- 127 1.82  78 1.86 203 1.94 177 1.98 243 2.01 151 2.03
  43  0.254  0.490  0.243-  76 1.85  96 1.86 125 1.87 178 2.03 244 2.04 157 2.04
  44  0.260  0.495  0.753-  97 1.79 126 1.86 158 1.93 152 1.97 245 2.01 179 2.05
  45  0.754  0.008  0.258- 120 1.82  79 1.83 204 1.95 180 1.99 153 2.01 255 2.06
  46  0.743  0.001  0.759-  90 1.82  80 1.83 246 1.93 256 1.96 154 2.05 205 2.05
  47  0.756  0.497  0.255-  98 1.84  81 1.84 254 1.93 247 2.01 181 2.01 155 2.01
  48  0.750  0.492  0.756- 128 1.83  82 1.83 182 1.92 206 1.96 156 2.02 248 2.05
  49  0.258  0.254  0.007-  83 1.81  99 1.84 249 1.95 236 1.96 183 2.03 166 2.04
  50  0.243  0.253  0.498-  91 1.84 121 1.84 165 1.95 159 1.98 237 2.03 207 2.03
  51  0.256  0.750  0.993- 100 1.83  86 1.83 238 1.96 250 1.97 160 2.02 184 2.04
  52  0.247  0.753  0.492-  85 1.83 122 1.85 208 1.95 185 1.98 239 2.00 161 2.00
  53  0.745  0.259  0.995- 123 1.82  87 1.83 186 1.95 209 1.98 240 2.02 162 2.05
  54  0.745  0.243  0.503-  92 1.83 118 1.86 163 1.93 167 1.99 251 2.02 210 2.03
  55  0.755  0.759  0.998- 124 1.84 101 1.84 169 1.94 164 2.00 241 2.00 187 2.02
  56  0.753  0.742  0.507-  84 1.81 119 1.81 188 1.95 211 1.98 252 2.03 168 2.06
  57  0.251  0.260  0.245- 125 1.78  83 1.85 212 1.95 189 1.98 165 2.02 242 2.06
  58  0.258  0.255  0.755- 126 1.81 102 1.84 166 1.95 159 1.98 243 2.02 190 2.04
  59  0.256  0.747  0.255- 103 1.83  85 1.85 244 1.92 253 1.97 160 2.00 191 2.06
  60  0.248  0.754  0.755-  86 1.84 127 1.84 192 1.95 213 1.97 245 2.01 161 2.02
  61  0.744  0.242  0.249- 120 1.82  93 1.83 162 1.93 167 1.97 254 2.02 214 2.04
  62  0.748  0.260  0.758- 128 1.81  87 1.82 193 1.94 215 1.97 246 2.03 163 2.04
  63  0.757  0.754  0.253- 104 1.80 255 1.92 168 1.92 247 1.94 164 1.94 194 1.99
  64  0.759  0.747  0.744- 105 1.82  84 1.82 248 1.93 256 1.97 169 2.02 195 2.04
  65  0.007  0.511  0.126-  11 1.83   3 1.83
  66  0.001  0.512  0.625-   4 1.82  12 1.84
  67  0.984  0.989  0.876-  10 1.81   1 1.83
  68  0.481  0.014  0.374-  13 1.82   6 1.83
  69  0.501  0.515  0.374-   8 1.82  15 1.85
  70  0.504  0.511  0.875-   7 1.80  16 1.87
  71  0.988  0.243  0.127-  25 1.82  17 1.85
  72  0.987  0.239  0.625-  18 1.83  26 1.84
  73  0.016  0.767  0.376-  20 1.81  27 1.84
  74  0.509  0.733  0.373-  24 1.83  31 1.84
  75  0.509  0.740  0.874-  23 1.82  32 1.85
  76  0.239  0.479  0.123-  35 1.80  43 1.85
  77  0.267  0.008  0.374-  41 1.84  34 1.84
  78  0.263  0.011  0.875-  33 1.82  42 1.86
  79  0.763  0.983  0.375-  45 1.83  38 1.84
  80  0.765  0.996  0.876-  46 1.83  37 1.84
  81  0.746  0.484  0.375-  40 1.82  47 1.84
  82  0.747  0.492  0.875-  48 1.83  39 1.83
  83  0.260  0.270  0.124-  49 1.81  57 1.85
  84  0.767  0.739  0.625-  56 1.81  64 1.82
  85  0.238  0.736  0.374-  52 1.83  59 1.85
  86  0.240  0.738  0.874-  51 1.83  60 1.84
  87  0.731  0.259  0.876-  62 1.82  53 1.83
  88  0.125  0.516  0.495-   4 1.81  36 1.82
  89  0.124  0.017  0.266-   9 1.82  41 1.83
  90  0.626  0.983  0.764-  46 1.82  14 1.83
  91  0.124  0.234  0.509-  50 1.84  18 1.84
  92  0.626  0.238  0.511-  54 1.83  22 1.85
  93  0.626  0.235  0.237-  29 1.82  61 1.83
  94  0.375  0.981  0.015-   5 1.82  33 1.83
  95  0.375  0.481  0.001-  35 1.81   7 1.84
  96  0.375  0.488  0.246-  15 1.81  43 1.86
  97  0.375  0.511  0.747-  44 1.79  16 1.85
  98  0.875  0.490  0.248-  47 1.84  11 1.84
  99  0.375  0.267  0.982-  21 1.83  49 1.84
 100  0.374  0.765  0.993-  51 1.83  23 1.86
 101  0.875  0.763  0.989-  19 1.84  55 1.84
 102  0.376  0.236  0.768-  30 1.81  58 1.84
 103  0.375  0.759  0.256-  59 1.83  31 1.84
 104  0.874  0.765  0.262-  63 1.80  27 1.88
 105  0.875  0.735  0.769-  64 1.82  28 1.83
 106  0.484  0.125  0.014-  21 1.82   5 1.84
 107  0.979  0.125  0.266-   9 1.80  25 1.84
 108  0.484  0.124  0.228-  29 1.82  13 1.83
 109  0.515  0.124  0.740-  14 1.83  30 1.84
 110  0.518  0.626  0.735-  32 1.80  16 1.86
 111  0.012  0.376  0.005-  17 1.82   3 1.84
 112  0.013  0.877  0.016-   1 1.83  19 1.84
 113  0.020  0.876  0.518-   2 1.78  20 1.87
 114  0.509  0.372  0.484-  22 1.81   8 1.86
 115  0.513  0.874  0.485-   6 1.82  24 1.85
 116  0.987  0.375  0.746-  26 1.83  12 1.84
 117  0.987  0.876  0.734-  28 1.84  10 1.84
 118  0.765  0.124  0.489-  38 1.82  54 1.86
 119  0.766  0.626  0.484-  56 1.81  40 1.86
 120  0.769  0.126  0.266-  45 1.82  61 1.82
 121  0.240  0.373  0.485-  50 1.84  36 1.84
 122  0.232  0.873  0.492-  34 1.83  52 1.85
 123  0.739  0.377  0.016-  53 1.82  39 1.84
 124  0.738  0.877  0.012-  37 1.83  55 1.84
 125  0.234  0.372  0.272-  57 1.78  43 1.87
 126  0.258  0.373  0.766-  58 1.81  44 1.86
 127  0.259  0.874  0.756-  42 1.82  60 1.84
 128  0.770  0.375  0.738-  62 1.81  48 1.83
 129  0.012  0.019  0.126-   9 1.92   1 2.04
 130  0.014  0.019  0.625-   2 1.90  10 2.10
 131  0.517  0.983  0.126-   5 1.94  13 2.04
 132  0.515  0.987  0.622-  14 1.94   6 2.02
 133  0.506  0.482  0.124-  15 2.00   7 2.04
 134  0.500  0.484  0.623-   8 2.01  16 2.02
 135  0.984  0.980  0.378-   2 1.96   9 2.01
 136  0.997  0.492  0.376-   4 2.00  11 2.01
 137  0.996  0.499  0.875-  12 2.00   3 2.01
 138  0.484  0.008  0.875-   5 1.97  14 1.98
 139  0.988  0.737  0.128-  19 1.96  27 2.00
 140  0.982  0.735  0.622-  28 1.97  20 2.02
 141  0.484  0.272  0.125-  29 1.96  21 1.96
 142  0.483  0.262  0.625-  30 1.95  22 1.95
 143  0.499  0.766  0.124-  31 2.00  23 2.04
 144  0.492  0.763  0.622-  24 2.01  32 2.02
 145  0.008  0.260  0.376-  25 2.01  18 2.02
 146  0.013  0.252  0.876-  17 2.01  26 2.02
 147  0.018  0.764  0.874-  28 1.97  19 1.97
 148  0.509  0.226  0.374-  29 1.95  22 1.97
 149  0.524  0.239  0.876-  21 1.95  30 1.97
 150  0.234  0.992  0.125-  41 2.02  33 2.04
 151  0.234  0.994  0.624-  34 2.01  42 2.03
 152  0.245  0.486  0.625-  36 1.97  44 1.97
 153  0.737  0.014  0.128-  45 2.01  37 2.04
 154  0.739  0.006  0.625-  38 2.01  46 2.05
 155  0.751  0.519  0.126-  47 2.01  39 2.02
 156  0.755  0.514  0.625-  48 2.02  40 2.03
 157  0.257  0.520  0.373-  36 1.92  43 2.04
 158  0.251  0.519  0.877-  44 1.93  35 2.04
 159  0.264  0.259  0.626-  50 1.98  58 1.98
 160  0.252  0.763  0.124-  59 2.00  51 2.02
 161  0.259  0.754  0.623-  52 2.00  60 2.02
 162  0.769  0.238  0.125-  61 1.93  53 2.05
 163  0.767  0.237  0.627-  54 1.93  62 2.04
 164  0.760  0.737  0.127-  63 1.94  55 2.00
 165  0.244  0.226  0.373-  50 1.95  57 2.02
 166  0.233  0.230  0.878-  58 1.95  49 2.04
 167  0.739  0.269  0.375-  61 1.97  54 1.99
 168  0.735  0.768  0.376-  63 1.92  56 2.06
 169  0.733  0.761  0.873-  55 1.94  64 2.02
 170  0.126  0.018  0.990-   1 1.95  33 2.04
 171  0.123  0.019  0.483-   2 1.93  34 2.00
 172  0.127  0.517  0.990-   3 1.93  35 2.03
 173  0.622  0.016  0.987-  37 1.95   5 2.04
 174  0.624  0.015  0.486-  38 1.95   6 1.95
 175  0.624  0.517  0.006-  39 1.93   7 2.03
 176  0.626  0.513  0.507-  40 1.96   8 1.98
 177  0.124  0.991  0.761-  10 1.96  42 1.98
 178  0.125  0.514  0.261-  11 2.01  43 2.03
 179  0.126  0.491  0.755-  12 1.92  44 2.05
 180  0.624  0.013  0.263-  45 1.99  13 1.99
 181  0.626  0.509  0.246-  47 2.01  15 2.04
 182  0.626  0.481  0.741-  48 1.92  16 2.04
 183  0.127  0.235  0.011-  17 1.95  49 2.03
 184  0.125  0.736  0.011-  19 2.02  51 2.04
 185  0.123  0.727  0.517-  20 1.94  52 1.98
 186  0.623  0.238  0.022-  53 1.95  21 2.05
 187  0.625  0.737  0.010-  55 2.02  23 2.03
 188  0.626  0.734  0.513-  56 1.95  24 1.96
 189  0.125  0.231  0.243-  57 1.98  25 1.99
 190  0.126  0.257  0.739-  26 1.94  58 2.04
 191  0.122  0.741  0.237-  27 1.97  59 2.06
 192  0.123  0.760  0.733-  60 1.95  28 2.03
 193  0.625  0.265  0.730-  62 1.94  30 2.07
 194  0.628  0.741  0.241-  63 1.99  31 2.05
 195  0.628  0.770  0.736-  32 1.96  64 2.04
 196  0.375  0.983  0.520-  34 1.95   6 1.96
 197  0.373  0.491  0.503-   8 1.94  36 2.02
 198  0.875  0.995  0.021-   1 1.97  37 1.98
 199  0.877  0.982  0.518-   2 1.93  38 1.99
 200  0.875  0.495  0.003-  39 1.97   3 1.97
 201  0.877  0.485  0.500-  40 1.93   4 2.02
 202  0.373  0.981  0.232-  13 1.94  41 2.06
 203  0.376  0.011  0.732-  42 1.94  14 2.05
 204  0.876  0.982  0.235-  45 1.95   9 2.05
 205  0.873  0.018  0.733-  10 1.94  46 2.05
 206  0.875  0.523  0.752-  48 1.96  12 1.98
 207  0.375  0.252  0.488-  22 2.02  50 2.03
 208  0.374  0.761  0.490-  52 1.95  24 1.96
 209  0.874  0.261  0.986-  17 1.98  53 1.98
 210  0.875  0.263  0.488-  54 2.03  18 2.03
 211  0.876  0.773  0.483-  20 1.95  56 1.98
 212  0.377  0.263  0.264-  57 1.95  29 2.04
 213  0.375  0.734  0.752-  60 1.97  32 1.99
 214  0.873  0.273  0.263-  25 1.95  61 2.04
 215  0.874  0.232  0.769-  62 1.97  26 1.99
 216  0.989  0.126  0.992-   1 2.01  17 2.02
 217  0.982  0.120  0.484-  18 1.98   2 2.01
 218  0.991  0.628  0.990-  19 2.00   3 2.01
 219  0.980  0.629  0.486-   4 1.98  20 1.99
 220  0.488  0.122  0.516-   6 2.01  22 2.05
 221  0.485  0.625  0.017-  23 1.98   7 1.98
 222  0.489  0.625  0.515-  24 2.00   8 2.04
 223  0.010  0.124  0.760-  10 1.99  26 2.03
 224  0.990  0.628  0.266-  27 1.94  11 1.99
 225  0.015  0.628  0.759-  28 2.00  12 2.03
 226  0.494  0.624  0.228-  31 1.96  15 1.98
 227  0.012  0.375  0.508-   4 1.96  18 1.97
 228  0.521  0.372  0.988-   7 1.96  21 2.01
 229  0.519  0.878  0.988-  23 1.96   5 2.01
 230  0.019  0.374  0.246-  11 1.94  25 2.02
 231  0.013  0.878  0.233-  27 1.93   9 2.05
 232  0.514  0.370  0.267-  15 1.96  29 2.01
 233  0.493  0.372  0.761-  30 1.99  16 2.05
 234  0.514  0.876  0.262-  31 1.95  13 2.02
 235  0.484  0.875  0.756-  14 2.00  32 2.06
 236  0.266  0.126  0.017-  49 1.96  33 1.96
 237  0.263  0.122  0.512-  34 2.00  50 2.03
 238  0.265  0.624  0.018-  51 1.96  35 1.96
 239  0.265  0.624  0.512-  52 2.00  36 2.03
 240  0.759  0.127  0.997-  37 2.01  53 2.02
 241  0.759  0.628  0.990-  55 2.00  39 2.02
 242  0.268  0.126  0.234-  41 1.93  57 2.06
 243  0.239  0.124  0.738-  42 2.01  58 2.02
 244  0.257  0.623  0.231-  59 1.92  43 2.04
 245  0.236  0.624  0.736-  60 2.01  44 2.01
 246  0.734  0.127  0.754-  46 1.93  62 2.03
 247  0.758  0.628  0.267-  63 1.94  47 2.01
 248  0.729  0.625  0.759-  64 1.93  48 2.05
 249  0.228  0.374  0.975-  49 1.95  35 1.98
 250  0.227  0.876  0.991-  33 1.95  51 1.97
 251  0.742  0.375  0.517-  54 2.02  40 2.02
 252  0.735  0.874  0.512-  56 2.03  38 2.03
 253  0.235  0.875  0.257-  41 1.96  59 1.97
 254  0.737  0.373  0.231-  47 1.93  61 2.02
 255  0.735  0.877  0.233-  63 1.92  45 2.06
 256  0.770  0.876  0.741-  46 1.96  64 1.97
 

IMPORTANT INFORMATION: All symmetrisations will be switched off!
NOSYMM: (Re-)initialisation of all symmetry stuff for point group C_1.

 
 
 KPOINTS: Title                                   

Automatic generation of k-mesh.
Space group operators:
 irot       det(A)        alpha          n_x          n_y          n_z        tau_x        tau_y        tau_z
    1     1.000000     0.000000     1.000000     0.000000     0.000000     0.000000     0.000000     0.000000
 
 Subroutine IBZKPT returns following result:
 ===========================================
 
 Found      4 irreducible k-points:
 
 Following reciprocal coordinates:
            Coordinates               Weight
  0.250000  0.250000  0.250000      2.000000
 -0.250000  0.250000  0.250000      2.000000
  0.250000 -0.250000  0.250000      2.000000
 -0.250000 -0.250000  0.250000      2.000000
 
 Following cartesian coordinates:
            Coordinates               Weight
  0.016330  0.016385  0.016346      2.000000
 -0.016325  0.016377  0.016349      2.000000
  0.016322 -0.016457  0.016426      2.000000
 -0.016333 -0.016465  0.016429      2.000000
 


--------------------------------------------------------------------------------------------------------




 Dimension of arrays:
   k-points           NKPTS =      4   k-points in BZ     NKDIM =      4   number of bands    NBANDS=   1280
   number of dos      NEDOS =   3001   number of ions     NIONS =    256
   non local maximal  LDIM  =      6   non local SUM 2l+1 LMDIM =     18
   total plane-waves  NPLWV = ******
   max r-space proj   IRMAX =  10696   max aug-charges    IRDMAX= 239826
   dimension x,y,z NGX =   140 NGY =  140 NGZ =  140
   dimension x,y,z NGXF=   280 NGYF=  280 NGZF=  280
   support grid    NGXF=   560 NGYF=  560 NGZF=  560
   ions per type =              64  64 128
   NGX,Y,Z   is equivalent  to a cutoff of  15.20, 15.29, 15.26 a.u.
   NGXF,Y,Z  is equivalent  to a cutoff of  30.40, 30.57, 30.51 a.u.

 SYSTEM =  LTO                                     
 POSCAR =  Ti64 O64 F128                           

 Startparameter for this run:
   NWRITE =      2    write-flag & timer
   PREC   = accura    normal or accurate (medium, high low for compatibility)
   ISTART =      1    job   : 0-new  1-cont  2-samecut
   ICHARG =      0    charge: 1-file 2-atom 10-const
   ISPIN  =      2    spin polarized calculation?
   LNONCOLLINEAR =      F non collinear calculations
   LSORBIT =      F    spin-orbit coupling
   INIWAV =      1    electr: 0-lowe 1-rand  2-diag
   LASPH  =      T    aspherical Exc in radial PAW
   METAGGA=      F    non-selfconsistent MetaGGA calc.

 Electronic Relaxation 1
   ENCUT  =  700.0 eV  51.45 Ry    7.17 a.u.  33.03 32.84 32.91*2*pi/ulx,y,z
   ENINI  =  700.0     initial cutoff
   ENAUG  =  613.6 eV  augmentation charge cutoff
   NELM   =     60;   NELMIN=  2; NELMDL=  0     # of ELM steps 
   EDIFF  = 0.1E-05   stopping-criterion for ELM
   LREAL  =      T    real-space projection
   NLSPLINE    = F    spline interpolate recip. space projectors
   LCOMPAT=      F    compatible to vasp.4.4
   GGA_COMPAT  = T    GGA compatible to vasp.4.4-vasp.4.6
   LMAXPAW     = -100 max onsite density
   LMAXMIX     =    4 max onsite mixed and CHGCAR
   VOSKOWN=      0    Vosko Wilk Nusair interpolation
   ROPT   =   -0.00010  -0.00010  -0.00010
 Ionic relaxation
   EDIFFG = -.1E-01   stopping-criterion for IOM
   NSW    =    100    number of steps for IOM
   NBLOCK =      1;   KBLOCK =    100    inner block; outer block 
   IBRION =      2    ionic relax: 0-MD 1-quasi-New 2-CG
   NFREE  =      1    steps in history (QN), initial steepest desc. (CG)
   ISIF   =      3    stress and relaxation
   IWAVPR =     11    prediction:  0-non 1-charg 2-wave 3-comb
   ISYM   =      0    0-nonsym 1-usesym 2-fastsym
   LCORR  =      T    Harris-Foulkes like correction to forces

   POTIM  = 0.5000    time-step for ionic-motion
   TEIN   =    0.0    initial temperature
   TEBEG  =    0.0;   TEEND  =   0.0 temperature during run
   SMASS  =  -3.00    Nose mass-parameter (am)
   estimated Nose-frequenzy (Omega)   =  0.10E-29 period in steps =****** mass=  -0.536E-26a.u.
   SCALEE = 1.0000    scale energy and forces
   NPACO  =    256;   APACO  = 16.0  distance and # of slots for P.C.
   PSTRESS=    0.0 pullay stress

  Mass of Ions in am
   POMASS =  47.88 16.00 19.00
  Ionic Valenz
   ZVAL   =  10.00  6.00  7.00
  Atomic Wigner-Seitz radii
   RWIGS  =  -1.00 -1.00 -1.00
  virtual crystal weights 
   VCA    =   1.00  1.00  1.00
   NELECT =    1920.0000    total number of electrons
   NUPDOWN=      -1.0000    fix difference up-down

 DOS related values:
   EMIN   =  10.00;   EMAX   =-10.00  energy-range for DOS
   EFERMI =   0.00
   ISMEAR =     0;   SIGMA  =   0.01  broadening in eV -4-tet -1-fermi 0-gaus

 Electronic relaxation 2 (details)
   IALGO  =     68    algorithm
   LDIAG  =      T    sub-space diagonalisation (order eigenvalues)
   LSUBROT=      F    optimize rotation matrix (better conditioning)
   TURBO    =      0    0=normal 1=particle mesh
   IRESTART =      0    0=no restart 2=restart with 2 vectors
   NREBOOT  =      0    no. of reboots
   NMIN     =      0    reboot dimension
   EREF     =   0.00    reference energy to select bands
   IMIX   =      4    mixing-type and parameters
     AMIX     =   0.40;   BMIX     =  1.00
     AMIX_MAG =   1.60;   BMIX_MAG =  1.00
     AMIN     =   0.10
     WC   =   100.;   INIMIX=   1;  MIXPRE=   1;  MAXMIX= -45

 Intra band minimization:
   WEIMIN = 0.0010     energy-eigenvalue tresh-hold
   EBREAK =  0.20E-09  absolut break condition
   DEPER  =   0.30     relativ break condition  

   TIME   =   0.40     timestep for ELM

  volume/ion in A,a.u.               =      13.89        93.74
  Fermi-wavevector in a.u.,A,eV,Ry     =   1.333045  2.519089 24.177669  1.777009
  Thomas-Fermi vector in A             =   2.461933
 
 Write flags
   LWAVE        =      T    write WAVECAR
   LDOWNSAMPLE  =      F    k-point downsampling of WAVECAR
   LCHARG       =      T    write CHGCAR
   LVTOT        =      F    write LOCPOT, total local potential
   LVHAR        =      F    write LOCPOT, Hartree potential only
   LELF         =      F    write electronic localiz. function (ELF)
   LORBIT       =     11    0 simple, 1 ext, 2 COOP (PROOUT), +10 PAW based schemes


 Dipole corrections
   LMONO  =      F    monopole corrections only (constant potential shift)
   LDIPOL =      F    correct potential (dipole corrections)
   IDIPOL =      0    1-x, 2-y, 3-z, 4-all directions 
   EPSILON=  1.0000000 bulk dielectric constant

 LDA+U is selected, type is set to LDAUTYPE =  2
   angular momentum for each species LDAUL =     2   -1   -1
   U (eV)           for each species LDAUU =   4.2  0.0  0.0
   J (eV)           for each species LDAUJ =   0.0  0.0  0.0
 Exchange correlation treatment:
   GGA     =    PS    GGA type
   LEXCH   =    14    internal setting for exchange type
   VOSKOWN=      0    Vosko Wilk Nusair interpolation
   LHFCALC =     F    Hartree Fock is set to
   LHFONE  =     F    Hartree Fock one center treatment
   AEXX    =    0.0000 exact exchange contribution

 Linear response parameters
   LEPSILON=     F    determine dielectric tensor
   LRPA    =     F    only Hartree local field effects (RPA)
   LNABLA  =     F    use nabla operator in PAW spheres
   LVEL    =     F    velocity operator in full k-point grid
   LINTERFAST=   F  fast interpolation
   KINTER  =     0    interpolate to denser k-point grid
   CSHIFT  =0.1000    complex shift for real part using Kramers Kronig
   OMEGAMAX=  -1.0    maximum frequency
   DEG_THRESHOLD= 0.2000000E-02 threshold for treating states as degnerate
   RTIME   =   -0.100 relaxation time in fs
  (WPLASMAI=    0.000 imaginary part of plasma frequency in eV, 0.658/RTIME)
   DFIELD  = 0.0000000 0.0000000 0.0000000 field for delta impulse in time
 
 Orbital magnetization related:
   ORBITALMAG=     F  switch on orbital magnetization
   LCHIMAG   =     F  perturbation theory with respect to B field
   DQ        =  0.001000  dq finite difference perturbation B field
   LLRAUG    =     F  two centre corrections for induced B field



--------------------------------------------------------------------------------------------------------


 conjugate gradient relaxation of ions
 charge density and potential will be updated during run
 spin polarized calculation
 RMM-DIIS sequential band-by-band and
  variant of blocked Davidson during initial phase
 perform sub-space diagonalisation
    before iterative eigenvector-optimisation
 modified Broyden-mixing scheme, WC =      100.0
 initial mixing is a Kerker type mixing with AMIX =  0.4000 and BMIX =      1.0000
 Hartree-type preconditioning will be used
 using additional bands          320
 real space projection scheme for non local part
 use partial core corrections
 calculate Harris-corrections to forces 
   (improved forces if not selfconsistent)
 use gradient corrections 
 use of overlap-Matrix (Vanderbilt PP)
 Gauss-broadening in eV      SIGMA  =   0.01


--------------------------------------------------------------------------------------------------------


  energy-cutoff  :      700.00
  volume of cell :     3556.24
      direct lattice vectors                 reciprocal lattice vectors
    15.311742266 -0.003611061  0.001310872     0.065309358  0.000015411 -0.000005769
    -0.003589264 15.224588105  0.036936631     0.000015504  0.065683612 -0.000159159
     0.001338777  0.036965292 15.255409675    -0.000005649 -0.000159035  0.065550903

  length of vectors
    15.311742747 15.224633334 15.255454519     0.065309360  0.065683806  0.065551097


 
 old parameters found on file WAVECAR:
  energy-cutoff  :      650.00
  volume of cell :     3556.24
      direct lattice vectors                 reciprocal lattice vectors
    15.311742266 -0.003611061  0.001310872     0.065309358  0.000015411 -0.000005769
    -0.003589264 15.224588105  0.036936631     0.000015504  0.065683612 -0.000159159
     0.001338777  0.036965292 15.255409675    -0.000005649 -0.000159035  0.065550903

  length of vectors

 
 k-points in units of 2pi/SCALE and weight: Title                                   
   0.01632980  0.01638500  0.01634649       0.250
  -0.01632488  0.01637729  0.01634938       0.250
   0.01632205 -0.01645681  0.01642607       0.250
  -0.01633263 -0.01646451  0.01642896       0.250
 
 k-points in reciprocal lattice and weights: Title                                   
   0.25000000  0.25000000  0.25000000       0.250
  -0.25000000  0.25000000  0.25000000       0.250
   0.25000000 -0.25000000  0.25000000       0.250
  -0.25000000 -0.25000000  0.25000000       0.250
 
 position of ions in fractional coordinates (direct lattice) 
   0.00111366  0.99481178  0.99494546
   0.00209825  0.99105416  0.50419865
   0.00397914  0.49714253  0.00676974
   0.00770019  0.50360869  0.50633349
   0.49041999  0.00540480  0.00405124
   0.49889711  0.99274316  0.49060987
   0.49335525  0.49753715  0.99217607
   0.49920921  0.49356529  0.49146657
   0.00605960  0.01139959  0.25136601
   0.99539995  0.99391758  0.75842236
   0.99495867  0.49909435  0.24464622
   0.00078988  0.49572537  0.74461935
   0.49472265  0.00759258  0.25545174
   0.50930048  0.00337470  0.74773608
   0.49313758  0.49687878  0.25420014
   0.49593669  0.50643297  0.75295464
   0.00157466  0.25705584  0.00666983
   0.00497776  0.24583595  0.50721815
   0.99475465  0.75844975  0.00157408
   0.00220581  0.75743009  0.49315294
   0.49092239  0.24408875  0.99983453
   0.50670757  0.25410376  0.49958780
   0.49485960  0.75178455  0.99149528
   0.50179255  0.75341990  0.49095419
   0.99563916  0.24350450  0.24553861
   0.99905928  0.25573542  0.74409569
   0.99601000  0.75503227  0.25760268
   0.99086044  0.75583573  0.74844573
   0.50721117  0.23974801  0.24691832
   0.49324114  0.24165885  0.75087022
   0.49458387  0.74995830  0.25440583
   0.50450029  0.74168493  0.75251841
   0.25810567  0.99959601  0.99398228
   0.25024236  0.99216647  0.49287251
   0.25736959  0.49629319  0.00816592
   0.24184065  0.49315122  0.49592886
   0.74785211  0.99596381  0.99579631
   0.75143657  0.00535307  0.49347572
   0.74707231  0.49601594  0.99558738
   0.75293812  0.50503358  0.49262291
   0.24264946  0.00387176  0.25670448
   0.25303300  0.99393370  0.75521390
   0.25375048  0.49025073  0.24335457
   0.25973893  0.49472379  0.75272431
   0.75390151  0.00790245  0.25816631
   0.74301886  0.00052569  0.75854123
   0.75590266  0.49650508  0.25548881
   0.75019317  0.49205573  0.75559720
   0.25826194  0.25383238  0.00704216
   0.24267792  0.25269251  0.49799292
   0.25590278  0.74983744  0.99250248
   0.24735222  0.75259583  0.49214711
   0.74528426  0.25920733  0.99487451
   0.74495209  0.24331672  0.50278521
   0.75539293  0.75880202  0.99778116
   0.75285570  0.74249696  0.50732773
   0.25114965  0.25990865  0.24519422
   0.25810677  0.25468934  0.75535189
   0.25576478  0.74741755  0.25455503
   0.24815138  0.75384596  0.75476800
   0.74447537  0.24228642  0.24892108
   0.74819625  0.25959219  0.75781147
   0.75665206  0.75409639  0.25255931
   0.75905389  0.74662582  0.74394022
   0.00678472  0.51130708  0.12591551
   0.00067150  0.51188914  0.62515326
   0.98441508  0.98853860  0.87637375
   0.48145111  0.01446214  0.37352773
   0.50069334  0.51471798  0.37394374
   0.50400159  0.51057912  0.87540153
   0.98845778  0.24311968  0.12674772
   0.98668119  0.23873144  0.62526163
   0.01573778  0.76683143  0.37592871
   0.50949274  0.73319582  0.37328176
   0.50899229  0.73989521  0.87396756
   0.23914088  0.47891640  0.12349522
   0.26704078  0.00787637  0.37446409
   0.26282186  0.01058273  0.87543136
   0.76293480  0.98314289  0.37536356
   0.76505710  0.99620583  0.87633466
   0.74637171  0.48434818  0.37508278
   0.74676639  0.49190413  0.87549677
   0.26048354  0.26985321  0.12434979
   0.76747058  0.73904696  0.62503809
   0.23790932  0.73640086  0.37389805
   0.24031072  0.73764498  0.87395953
   0.73057136  0.25923471  0.87609114
   0.12500699  0.51642113  0.49506715
   0.12407831  0.01696293  0.26634625
   0.62563999  0.98275984  0.76371732
   0.12449514  0.23402967  0.50891339
   0.62568068  0.23775462  0.51145778
   0.62569595  0.23471515  0.23671754
   0.37456431  0.98087805  0.01479017
   0.37460980  0.48050646  0.00105291
   0.37534527  0.48794998  0.24561112
   0.37522576  0.51116222  0.74672049
   0.87534585  0.48951500  0.24799542
   0.37513699  0.26660121  0.98230801
   0.37441634  0.76532340  0.99340562
   0.87532916  0.76253107  0.98864119
   0.37629114  0.23589195  0.76799158
   0.37485286  0.75854221  0.25561140
   0.87367717  0.76452525  0.26196028
   0.87491643  0.73505741  0.76876398
   0.48444768  0.12548258  0.01423674
   0.97867004  0.12530548  0.26630911
   0.48368145  0.12407269  0.22818032
   0.51453115  0.12351731  0.74002366
   0.51787211  0.62557885  0.73501009
   0.01234317  0.37632914  0.00496136
   0.01325142  0.87724362  0.01578090
   0.02009705  0.87616733  0.51844017
   0.50866885  0.37232599  0.48419156
   0.51315565  0.87427922  0.48484984
   0.98692960  0.37548172  0.74569062
   0.98696385  0.87580551  0.73417666
   0.76457048  0.12389075  0.48857191
   0.76596591  0.62639585  0.48438680
   0.76856051  0.12624322  0.26584961
   0.23980626  0.37280260  0.48468592
   0.23213360  0.87322084  0.49206505
   0.73920149  0.37679407  0.01592039
   0.73782220  0.87721306  0.01155615
   0.23431395  0.37247406  0.27179821
   0.25797999  0.37326141  0.76611958
   0.25925417  0.87439724  0.75570787
   0.77034040  0.37507829  0.73844402
   0.01215344  0.01859077  0.12567462
   0.01433836  0.01938112  0.62458136
   0.51744932  0.98340614  0.12626015
   0.51463482  0.98722062  0.62203628
   0.50568674  0.48184110  0.12437422
   0.50029684  0.48417505  0.62286028
   0.98415536  0.98000428  0.37754477
   0.99663166  0.49151917  0.37631093
   0.99559373  0.49934263  0.87530989
   0.48365100  0.00816912  0.87508745
   0.98836893  0.73657345  0.12801005
   0.98169792  0.73451752  0.62181124
   0.48402848  0.27237675  0.12497361
   0.48311019  0.26201119  0.62509370
   0.49901923  0.76581256  0.12439809
   0.49172412  0.76286402  0.62221858
   0.00848450  0.26006388  0.37558163
   0.01262489  0.25242944  0.87563558
   0.01802045  0.76356883  0.87433276
   0.50898996  0.22579464  0.37381019
   0.52404349  0.23861707  0.87644315
   0.23437438  0.99187751  0.12519897
   0.23357370  0.99442621  0.62374162
   0.24501553  0.48601216  0.62454020
   0.73727169  0.01392179  0.12759840
   0.73903179  0.00584000  0.62459753
   0.75082109  0.51915893  0.12584691
   0.75478265  0.51424251  0.62502666
   0.25728687  0.51966986  0.37341602
   0.25075754  0.51933904  0.87671195
   0.26363982  0.25918237  0.62574417
   0.25150788  0.76321258  0.12432730
   0.25915150  0.75429492  0.62291744
   0.76913615  0.23823416  0.12522923
   0.76660559  0.23744455  0.62738514
   0.76021982  0.73669402  0.12676513
   0.24356362  0.22569546  0.37305177
   0.23318395  0.23018957  0.87815464
   0.73858591  0.26892430  0.37482252
   0.73479128  0.76798957  0.37566855
   0.73274430  0.76142961  0.87280639
   0.12606114  0.01843529  0.99020489
   0.12300841  0.01943003  0.48268073
   0.12737333  0.51727413  0.99008622
   0.62237937  0.01596766  0.98714749
   0.62445104  0.01531239  0.48647506
   0.62350078  0.51694479  0.00641176
   0.62587893  0.51280539  0.50665973
   0.12365032  0.99148253  0.76079152
   0.12451007  0.51436821  0.26065945
   0.12577278  0.49069124  0.75503221
   0.62441665  0.01329359  0.26309200
   0.62583725  0.50855226  0.24564205
   0.62610775  0.48123492  0.74141815
   0.12695380  0.23457963  0.01137999
   0.12451976  0.73595373  0.01059725
   0.12269797  0.72668862  0.51699860
   0.62279607  0.23758205  0.02241816
   0.62546256  0.73746978  0.01001269
   0.62621454  0.73414864  0.51309823
   0.12494495  0.23050672  0.24294643
   0.12579589  0.25655323  0.73850462
   0.12247185  0.74061540  0.23727729
   0.12251899  0.75950904  0.73288789
   0.62469931  0.26488485  0.73049587
   0.62760227  0.74139090  0.24060644
   0.62840344  0.77041139  0.73631350
   0.37461638  0.98292685  0.51960603
   0.37329921  0.49100546  0.50305417
   0.87493820  0.99503323  0.02074233
   0.87706098  0.98164195  0.51838610
   0.87533319  0.49488869  0.00320028
   0.87707836  0.48464342  0.50004315
   0.37308582  0.98115015  0.23166653
   0.37644706  0.01064296  0.73185572
   0.87645829  0.98189335  0.23548648
   0.87343146  0.01768537  0.73282036
   0.87467300  0.52309860  0.75240176
   0.37512654  0.25212707  0.48802822
   0.37434772  0.76129939  0.48998030
   0.87421788  0.26059361  0.98563395
   0.87489783  0.26319398  0.48783123
   0.87600124  0.77344918  0.48332424
   0.37729051  0.26314959  0.26376688
   0.37503389  0.73444505  0.75237668
   0.87318268  0.27330493  0.26254564
   0.87378761  0.23228878  0.76855022
   0.98860892  0.12599685  0.99206150
   0.98192713  0.11995468  0.48441080
   0.99144388  0.62772151  0.98961733
   0.97959640  0.62897305  0.48576192
   0.48812446  0.12195920  0.51575733
   0.48545666  0.62476913  0.01743964
   0.48892825  0.62465613  0.51514450
   0.01011875  0.12401626  0.76010593
   0.98950533  0.62781013  0.26584195
   0.01549271  0.62755298  0.75938974
   0.49398263  0.62442539  0.22785329
   0.01237952  0.37482254  0.50812023
   0.52148176  0.37210768  0.98788983
   0.51916198  0.87784521  0.98795600
   0.01870798  0.37384051  0.24573211
   0.01255761  0.87824873  0.23315999
   0.51351017  0.37026584  0.26685691
   0.49336629  0.37200671  0.76142128
   0.51377761  0.87643787  0.26179502
   0.48381573  0.87503303  0.75639290
   0.26580243  0.12595384  0.01683668
   0.26286354  0.12166046  0.51234697
   0.26494540  0.62416729  0.01800970
   0.26467648  0.62376041  0.51198594
   0.75855205  0.12749016  0.99698182
   0.75866400  0.62776534  0.98995442
   0.26841298  0.12601887  0.23380430
   0.23909964  0.12429592  0.73810904
   0.25665779  0.62339705  0.23101409
   0.23613055  0.62376229  0.73569480
   0.73395786  0.12701124  0.75358710
   0.75785542  0.62765042  0.26681001
   0.72860094  0.62480366  0.75908971
   0.22810030  0.37442147  0.97511404
   0.22709993  0.87569848  0.99091696
   0.74150739  0.37498875  0.51693642
   0.73478005  0.87424678  0.51190864
   0.23475168  0.87508412  0.25715573
   0.73713155  0.37342942  0.23064234
   0.73529359  0.87661065  0.23294823
   0.76970573  0.87562437  0.74126411
 
 position of ions in cartesian coordinates  (Angst):
   0.01481346 15.18237395 15.21504701
   0.02924574 15.10702167  7.72836586
   0.05915229  7.56902605  0.12164310
   0.11677363  7.68592382  7.74293655
   7.50917055  0.08066467  0.06264589
   7.63607755 15.13043966  7.52177713
   7.55367099  7.60969271 15.15507643
   7.64264912  7.53069278  7.51640897
   0.09307867  0.18282402  3.83512052
  15.23875546 15.15642664 11.60806055
  15.23308684  7.60395651  3.75191750
   0.01131210  7.57473680 11.37778470
   7.57538045  0.12325031  3.89794986
   7.79926669  0.07717959 11.40781244
   7.54935247  7.57239052  3.89692675
   7.59284502  7.73627569 11.50598753
   0.02319709  3.91381017  0.11124784
   0.07601493  3.76148256  7.74690755
  15.22870667 11.54355116  0.05333187
   0.03171641 11.54978266  7.55122992
   7.51733955  3.75133717 15.26254466
   7.75833252  3.88526269  7.63146657
   7.57579171 11.48047407 15.15408373
   7.68127128 11.48684385  7.51819393
  15.24442491  3.71273679  3.75609142
  15.29741643  3.91736454 11.36224027
  15.24828335 11.50098104  3.95902840
  15.17008881 11.53137617 11.44706320
   7.76575672  3.65736057  3.77636045
   7.55251915  3.70513141 11.46440543
   7.57058961 11.42542442  3.90941437
   7.72312383 11.31784283 11.50803333
   3.94979039 15.25424832 15.20086697
   3.82874519 15.12264135  7.55594734
   3.93900644  7.55523189  0.14324327
   3.70189565  7.52548310  7.58413037
  11.44867717 15.19724817 15.22904852
  11.50644449  0.09702634  7.52935707
  11.43853121  7.58574288 15.20739389
  11.52764129  7.70441934  7.53480556
   3.71571575  0.06755882  3.91659316
   3.87181971 15.15923419 11.55814171
   3.88392808  7.47194486  3.73091456
   3.97628763  7.55885266 11.50173170
  11.54386291  0.12713233  3.93971305
  11.37792684  0.03335999 11.57285057
  11.57274662  7.56579997  3.91691656
  11.48600990  7.51656763 11.54610313
   3.95353856  3.86382119  0.11714536
   3.71558154  3.86467155  7.60673770
   3.91695481 11.45173026 15.16906392
   3.78535098 11.47526069  7.53602845
  11.41200206  3.98040933 15.18776951
  11.40631414  3.72029235  7.68015813
  11.56499408 11.58660374 15.25057810
  11.52554664 11.32024529  7.76790458
   3.84493409  3.96515897  3.75046758
   3.95216137  3.90453003 11.53294821
   3.91386251 11.38761047  3.91128366
   3.79793464 11.50399844 11.54246488
  11.39867863  3.69522398  3.80731819
  11.45627090  3.97749513 11.57129374
  11.58329281 11.48741059  3.88174143
  11.62075364 11.39182960 11.37768572
   0.10221924  7.78906963  1.93978761
   0.00928150  7.81640780  9.55587745
  15.07073506 15.07893362 13.40724431
   7.37230341  0.23224920  5.69948380
   7.66514048  7.84838419  5.72433329
   7.71648185  7.80389636 13.37412865
  15.13430779  3.70251288  1.94386418
  15.10778837  3.65413778  9.54873370
   0.23872376 11.68853215  5.76329132
   7.79908958 11.17456307  5.72231590
   7.79207311 11.29506830 13.36072963
   3.66010990  7.29500645  1.90197318
   4.08933273  0.13279244  5.71324402
   4.02539466  0.19252924 13.35579945
  11.67883486 14.97906596  5.76363895
  11.71195465 15.19645477 13.40664367
  11.42701503  7.38517134  5.74091012
  11.43370100  7.51870417 13.37521014
   3.98765466  4.11205998  1.90731586
  11.74949586 11.27201893  9.56351601
   3.64066367 11.22436195  5.73148001
   3.67809820 11.26177933 13.36017181
  11.18656276  3.97648844 13.37566225
   1.91288400  7.88014788  7.57169096
   1.90015083  0.26765120  4.06401031
   9.57713333 14.98808555 11.68794054
   1.90607884  3.58136793  7.77248966
   9.58009264  3.63636304  7.81210001
   9.57996956  3.57993236  3.62071291
   5.73173131 14.93265844  0.26235143
   5.73420552  7.31419907  0.03430191
   5.74576744  7.43656111  3.76541344
   5.74452511  7.80848204 11.41089952
  13.40164501  7.45867050  3.80250031
   5.74435915  4.09385032 14.99585022
   5.73154956 11.68710296 15.18356892
  13.40140113 11.64260594 15.11143913
   5.76185448  3.61838797 11.72523251
   5.73726997 11.55658782  3.92796599
  13.37512635 11.64611062  4.02569558
  13.39488578 11.21620450 11.75610691
   7.41730665  1.90919756  0.22245722
  14.98505013  1.91403443  4.06856585
   7.40586580  1.89564373  3.48620117
   7.87891568  1.90599736 11.29460083
   7.92826299  9.54948015 11.23666566
   0.18765126  5.72959501  0.08960412
   0.19977478 13.35620821  0.27316384
   0.30527006 13.35837843  7.94140620
   7.78791823  5.68457123  7.40095991
   7.85481818 13.32661053  7.42954848
  15.11126230  5.74055531 11.39097874
  15.10997556 13.35735324 11.23380887
  11.70711554  1.90148496  7.45894297
  11.72667273  9.55175833  7.41366012
  11.76790331  1.92905292  4.06131526
   3.67116246  5.69281667  7.40816666
   3.55189433 13.31177867  7.53921203
  11.31713158  5.73445379  0.25775855
  11.29421029 13.35297041  0.20966223
   3.58678184  5.67996507  4.16045807
   3.94980910  5.71013953 11.70159326
   3.96750638 13.33933660 11.56127024
  11.79489603  5.73492749 11.28013001
   0.18619181  0.28763860  1.91792050
   0.22031188  0.31810568  9.52897923
   7.91968997 14.97475205  1.96315231
   7.87724507 15.05116273  9.52655744
   7.74138203  7.33860368  1.91584013
   7.65951226  7.39258329  9.52052841
  15.06612124 14.93056374  5.79708833
  15.25890672  7.49348846  5.76023895
  15.24365421  7.63104676 13.37296012
   7.40668168  0.15497282 13.35075329
  15.13117799 11.21519031  1.98134786
  15.02970158 11.20216720  9.51440268
   7.41050901  4.14969562  1.91721873
   7.39715512  4.01037471  9.54637158
   7.63827171 11.66197729  1.92668450
   7.52724782 11.63551535  9.52102153
   0.12948187  3.97321826  5.73926865
   0.19357534  3.87545672 13.36751996
   0.27435438 11.65727587 13.36653176
   7.79321311  3.44961035  5.71163492
   8.02433578  3.66335219 13.37999999
   3.58528755 15.10470814  1.94690548
   3.57368611 15.16194284  9.55247086
   3.75070634  7.42153643  9.54588947
  11.28903503  0.21400793  1.94804652
  11.31667951  0.10933138  9.52967574
  11.49468412  7.90592152  1.94000634
  11.55602848  7.84950917  9.55502162
   3.93814501  7.92463392  5.71614643
   3.83884449  7.93822531 13.39411132
   4.03669242  3.96812356  9.55590253
   3.84845089 11.62328471  1.92518413
   3.96618750 11.50591991  9.53106155
  11.77612705  3.62886869  1.92023103
  11.73805494  3.63541871  9.58079267
  11.63781548 11.21780367  1.96206158
   3.72907273  3.44903092  5.69971324
   3.57080201  3.53616052 13.40541682
  11.30857359  4.10545011  5.72897238
  11.24868108 11.70355819  5.76030775
  11.21802742 11.62206977 13.34410425
   1.93147512  0.31681762 15.10682737
   1.88404946  0.31321249  7.36437115
   1.94977645  7.91142443 15.12344421
   9.53097684  0.27734374 15.06074502
   9.56202968  0.24885261  7.42276053
   9.54503639  7.86825709  0.11772554
   9.58213462  7.82371964  7.74906342
   1.89076166 15.12258946 11.64297037
   1.90496892  7.84022990  3.99562893
   1.92504995  7.49802781 11.53661496
   9.56121126  0.20985987  4.01488584
   9.58116221  7.74931893  3.76697469
   9.58606575  7.35174920 11.32923351
   1.94305711  3.57134053  0.18243748
   1.90398708 11.20453451  0.18901224
   1.87680360 11.08220290  7.91402777
   9.53527011  3.61566856  0.35159004
   9.57428795 11.22578512  0.18080721
   9.58648752 11.19381618  7.85546163
   1.91262278  3.51789924  3.71492527
   1.92622206  3.93276211 11.27583166
   1.87291686 11.28389324  3.64727868
   1.87423422 11.58986132 11.20871934
   9.56526203  4.05750986 11.15461656
   9.60734521 11.29399887  3.69875695
   9.62017204 11.75414490 11.26204420
   5.73319718 14.98251107  7.96359987
   5.71477239  7.49260346  7.69292288
  13.39328455 15.14657831  0.35433282
  13.42650225 14.96108951  7.94560052
  13.40110418  7.53143387  0.06824862
  13.42852769  7.39381345  7.64741390
   5.70938246 14.94482336  3.57089727
   5.76500188  0.18772862 11.16564543
  13.41689450 14.95446164  3.62985953
  13.37467506  0.29318739 11.18127308
  13.39189732  7.98861502 11.49866524
   5.74358927  3.85521634  7.45487494
   5.72983928 11.60723007  7.50346076
  13.38618300  4.00070770 15.04702107
  13.39591851  4.02189342  7.45293366
  13.41097615 11.79014818  7.40302625
   5.77638370  4.01473195  4.03408625
   5.74079338 11.20808088 11.50543410
  13.36931873  4.16750695  4.01648088
  13.37940581  3.56175542 11.73427381
  15.13820095  1.95135207 15.14025437
  15.03523311  1.84062113  7.39560314
  15.17980499  9.58980274 15.12150337
  14.99772045  9.59027460  7.43501336
   7.47428865  1.87408109  7.87323399
   7.43096814  9.51074425  0.28976210
   7.48479088  9.52740920  7.88245407
   0.15550819  1.91615742 11.60032135
  15.14915306  9.56440445  4.08001413
   0.23598452  9.58225083 11.60800154
   7.56179858  9.51325818  3.49970701
   0.18888699  5.72525693  7.76544312
   7.98478127  5.69982064 15.08509212
   7.94744629 13.39947711 15.10477879
   0.28543898  5.70058383  3.76257700
   0.18943882 13.37954872  3.58940723
   7.86176368  5.64515504  4.08536094
   7.55398162  5.69001346 11.63018103
   7.86403512 13.35122764  4.02683648
   7.40593375 13.34823066 11.57203852
   4.06946869  1.91725794  0.26185114
   4.02514797  1.87022022  7.82090119
   4.05455952  9.50239893  0.29814726
   4.05110458  9.51446520  7.83394178
  11.61563061  1.97509975 15.21506958
  11.61553972  9.59132318 15.12634227
   4.10973108  1.92625878  3.57178692
   3.66157414  1.91877515 11.26506028
   3.92794968  9.49857601  3.54757723
   3.61431623  9.52286640 11.24667482
  11.23872653  1.95889999 11.50193350
  11.60219130  9.56284514  4.09447278
  11.15492343  9.53780735 11.60425779
   3.49257459  5.73563442 14.88989309
   3.47547908 13.36795809 15.14948720
  11.35311613  5.72548031  7.90089965
  11.24831017 13.32631664  7.84263092
   3.59166063 13.33145343  3.95564642
  11.28573682  5.69117308  3.53330290
  11.25579136 13.35199185  3.58706359
  11.78338528 13.35564195 11.34163925
 


--------------------------------------------------------------------------------------------------------


 k-point  1 :   0.2500 0.2500 0.2500  plane waves:  149562
 k-point  2 :  -0.2500 0.2500 0.2500  plane waves:  149576
 k-point  3 :   0.2500-0.2500 0.2500  plane waves:  149563
 k-point  4 :  -0.2500-0.2500 0.2500  plane waves:  149567

 maximum and minimum number of plane-waves per node :     18743    18638

 maximum number of plane-waves:    149576
 maximum index in each direction: 
   IXMAX=   33   IYMAX=   33   IZMAX=   32
   IXMIN=  -33   IYMIN=  -33   IZMIN=  -33


 real space projection operators:
  total allocation   :     153971.70 KBytes
  max/ min on nodes  :      20418.88      18050.84


 parallel 3D FFT for wavefunctions:
    minimum data exchange during FFTs selected (reduces bandwidth)
 parallel 3D FFT for charge:
    minimum data exchange during FFTs selected (reduces bandwidth)


 total amount of memory used by VASP MPI-rank0   385344. kBytes
=======================================================================

   base      :      30000. kBytes
   nonlr-proj:      71532. kBytes
   fftplans  :      38725. kBytes
   grid      :      49123. kBytes
   one-center:        995. kBytes
   wavefun   :     194969. kBytes
 
     INWAV:  cpu time  113.8677: real time  146.8718
 Broyden mixing: mesh for mixing (old mesh)
   NGX = 67   NGY = 65   NGZ = 65
  (NGX  =280   NGY  =280   NGZ  =280)
  gives a total of 283075 points

 charge density for first step will be calculated from the start-wavefunctions


--------------------------------------------------------------------------------------------------------


 Maximum index for non-local projection operator         1638
 Maximum index for augmentation-charges         4588 (set IRDMAX)


--------------------------------------------------------------------------------------------------------


 initial charge from wavefunction
 First call to EWALD:  gamma=   0.116
 Maximum number of real-space cells 3x 3x 3
 Maximum number of reciprocal cells 3x 3x 3

    FEWALD:  cpu time    0.0230: real time    0.0239


--------------------------------------- Iteration      1(   1)  ---------------------------------------


    POTLOK:  cpu time    0.7709: real time    0.7834
    SETDIJ:  cpu time    2.4316: real time    2.4315
     EDDAV:  cpu time  183.3421: real time  182.5520
       DOS:  cpu time    0.0030: real time    0.0027
    CHARGE:  cpu time    8.3847: real time    8.3807
    MIXING:  cpu time    0.0290: real time    0.0292
    --------------------------------------------
      LOOP:  cpu time  194.9614: real time  194.1796

 eigenvalue-minimisations  : 20736
 total energy-change (2. order) :-0.1709551E+04  (-0.1173413E+01)
 number of electron    1920.0000025 magnetization       0.0000000
 augmentation part      495.4995384 magnetization      -0.0000001

 Broyden mixing:
  rms(total) = 0.40228E-01    rms(broyden)= 0.37724E-01
  rms(prec ) = 0.38278E-01
  weight for this iteration     100.00

 Free energy of the ion-electron system (eV)
  ---------------------------------------------------
  alpha Z        PSCENC =      6301.77105989
  Ewald energy   TEWEN  =   -105877.03902249
  -Hartree energ DENC   =    -63144.32974206
  -exchange      EXHF   =         0.00000000
  -V(xc)+E(xc)   XCENC  =      8959.42599597
  PAW double counting   =    144125.44577698  -145114.13053941
  entropy T*S    EENTRO =        -0.00000000
  eigenvalues    EBANDS =    -25379.51975963
  atomic energy  EATOM  =    178418.82573015
  Solvation  Ediel_sol  =         0.00000000
  ---------------------------------------------------
  free energy    TOTEN  =     -1709.55050061 eV

  energy without entropy =    -1709.55050061  energy(sigma->0) =    -1709.55050061


--------------------------------------------------------------------------------------------------------




--------------------------------------- Iteration      1(   2)  ---------------------------------------


    POTLOK:  cpu time    0.8149: real time    0.8286
    SETDIJ:  cpu time    2.4206: real time    2.4183
    EDDIAG:  cpu time   36.8734: real time   36.8136
  RMM-DIIS:  cpu time   68.5146: real time   68.4925
    ORTHCH:  cpu time   14.5568: real time   14.5498
       DOS:  cpu time    0.0030: real time    0.0036
    CHARGE:  cpu time    8.3957: real time    8.3923
    MIXING:  cpu time    0.0090: real time    0.0098
    --------------------------------------------
      LOOP:  cpu time  131.5880: real time  131.5084

 eigenvalue-minimisations  : 20833
 total energy-change (2. order) :-0.2725941E-02  (-0.8396427E-04)
 number of electron    1920.0000025 magnetization      -0.0000000
 augmentation part      495.5125657 magnetization      -0.0000000

 Broyden mixing:
  rms(total) = 0.22321E-01    rms(broyden)= 0.22149E-01
  rms(prec ) = 0.22460E-01
  weight for this iteration     100.00

 eigenvalues of (default mixing * dielectric matrix)
  average eigenvalue GAMMA=   2.2752
  2.2752

 Free energy of the ion-electron system (eV)
  ---------------------------------------------------
  alpha Z        PSCENC =      6301.77105989
  Ewald energy   TEWEN  =   -105877.03902249
  -Hartree energ DENC   =    -63143.01169744
  -exchange      EXHF   =         0.00000000
  -V(xc)+E(xc)   XCENC  =      8959.34908068
  PAW double counting   =    144139.09659233  -145127.48964602
  entropy T*S    EENTRO =        -0.00000000
  eigenvalues    EBANDS =    -25381.05532364
  atomic energy  EATOM  =    178418.82573015
  Solvation  Ediel_sol  =         0.00000000
  ---------------------------------------------------
  free energy    TOTEN  =     -1709.55322655 eV

  energy without entropy =    -1709.55322655  energy(sigma->0) =    -1709.55322655


--------------------------------------------------------------------------------------------------------




--------------------------------------- Iteration      1(   3)  ---------------------------------------


    POTLOK:  cpu time    0.6439: real time    0.7148
    SETDIJ:  cpu time    2.4316: real time    2.4408
    EDDIAG:  cpu time   36.5974: real time   36.8685
  RMM-DIIS:  cpu time   69.3405: real time   69.5582
    ORTHCH:  cpu time   14.6778: real time   14.7619
       DOS:  cpu time    0.0040: real time    0.0036
    CHARGE:  cpu time    8.3707: real time    8.3825
    MIXING:  cpu time    0.0080: real time    0.0081
    --------------------------------------------
      LOOP:  cpu time  132.0739: real time  132.7384

 eigenvalue-minimisations  : 21151
 total energy-change (2. order) :-0.2721667E-02  (-0.7421544E-04)
 number of electron    1920.0000025 magnetization      -0.0000000
 augmentation part      495.5216612 magnetization      -0.0000003

 Broyden mixing:
  rms(total) = 0.28812E-02    rms(broyden)= 0.28237E-02
  rms(prec ) = 0.29466E-02
  weight for this iteration     100.00

 eigenvalues of (default mixing * dielectric matrix)
  average eigenvalue GAMMA=   1.7651
  1.0575  2.4728

 Free energy of the ion-electron system (eV)
  ---------------------------------------------------
  alpha Z        PSCENC =      6301.77105989
  Ewald energy   TEWEN  =   -105877.03902249
  -Hartree energ DENC   =    -63143.28107612
  -exchange      EXHF   =         0.00000000
  -V(xc)+E(xc)   XCENC  =      8959.37860112
  PAW double counting   =    144158.14537479  -145146.23923652
  entropy T*S    EENTRO =        -0.00000000
  eigenvalues    EBANDS =    -25381.11737904
  atomic energy  EATOM  =    178418.82573015
  Solvation  Ediel_sol  =         0.00000000
  ---------------------------------------------------
  free energy    TOTEN  =     -1709.55594821 eV

  energy without entropy =    -1709.55594821  energy(sigma->0) =    -1709.55594821


--------------------------------------------------------------------------------------------------------




--------------------------------------- Iteration      1(   4)  ---------------------------------------


    POTLOK:  cpu time    0.8639: real time    0.8659
    SETDIJ:  cpu time    2.4416: real time    2.4394
    EDDIAG:  cpu time   37.0634: real time   37.0082
  RMM-DIIS:  cpu time   66.8668: real time   66.8517
    ORTHCH:  cpu time   14.5578: real time   14.5505
       DOS:  cpu time    0.0030: real time    0.0033
    CHARGE:  cpu time    8.3667: real time    8.3636
    MIXING:  cpu time    0.0090: real time    0.0087
    --------------------------------------------
      LOOP:  cpu time  130.1722: real time  130.0914

 eigenvalue-minimisations  : 20480
 total energy-change (2. order) :-0.3877294E-04  (-0.3411079E-05)
 number of electron    1920.0000025 magnetization      -0.0000000
 augmentation part      495.5217644 magnetization      -0.0000001

 Broyden mixing:
  rms(total) = 0.10634E-02    rms(broyden)= 0.10542E-02
  rms(prec ) = 0.11605E-02
  weight for this iteration     100.00

 eigenvalues of (default mixing * dielectric matrix)
  average eigenvalue GAMMA=   1.5738
  2.4976  1.3884  0.8355

 Free energy of the ion-electron system (eV)
  ---------------------------------------------------
  alpha Z        PSCENC =      6301.77105989
  Ewald energy   TEWEN  =   -105877.03902249
  -Hartree energ DENC   =    -63143.78140132
  -exchange      EXHF   =         0.00000000
  -V(xc)+E(xc)   XCENC  =      8959.40698721
  PAW double counting   =    144159.10065065  -145147.17474940
  entropy T*S    EENTRO =        -0.00000000
  eigenvalues    EBANDS =    -25380.66524166
  atomic energy  EATOM  =    178418.82573015
  Solvation  Ediel_sol  =         0.00000000
  ---------------------------------------------------
  free energy    TOTEN  =     -1709.55598699 eV

  energy without entropy =    -1709.55598699  energy(sigma->0) =    -1709.55598699


--------------------------------------------------------------------------------------------------------




--------------------------------------- Iteration      1(   5)  ---------------------------------------


    POTLOK:  cpu time    0.7129: real time    0.7543
    SETDIJ:  cpu time    2.4656: real time    2.4654
    EDDIAG:  cpu time   36.8284: real time   36.8198
  RMM-DIIS:  cpu time   62.6305: real time   62.7555
    ORTHCH:  cpu time   14.5568: real time   14.5749
       DOS:  cpu time    0.0070: real time    0.0065
    --------------------------------------------
      LOOP:  cpu time  117.2012: real time  117.3764

 eigenvalue-minimisations  : 18888
 total energy-change (2. order) :-0.2588204E-06  (-0.7520622E-06)
 number of electron    1920.0000025 magnetization      -0.0000000
 augmentation part      495.5217644 magnetization      -0.0000001

 Free energy of the ion-electron system (eV)
  ---------------------------------------------------
  alpha Z        PSCENC =      6301.77105989
  Ewald energy   TEWEN  =   -105877.03902249
  -Hartree energ DENC   =    -63144.07929249
  -exchange      EXHF   =         0.00000000
  -V(xc)+E(xc)   XCENC  =      8959.42286266
  PAW double counting   =    144158.51951667  -145146.59766376
  entropy T*S    EENTRO =        -0.00000000
  eigenvalues    EBANDS =    -25380.37917788
  atomic energy  EATOM  =    178418.82573015
  Solvation  Ediel_sol  =         0.00000000
  ---------------------------------------------------
  free energy    TOTEN  =     -1709.55598725 eV

  energy without entropy =    -1709.55598725  energy(sigma->0) =    -1709.55598725


--------------------------------------------------------------------------------------------------------




 average (electrostatic) potential at core
  the test charge radii are     1.0397  0.7215  0.7167
  (the norm of the test charge is              1.0000)
       1 -58.6605       2 -59.4921       3 -58.5539       4 -58.5332       5 -58.7643
       6 -58.7354       7 -58.3932       8 -58.5089       9 -58.6930      10 -58.6473
      11 -58.5505      12 -58.5650      13 -58.7593      14 -58.6211      15 -58.4394
      16 -58.1277      17 -58.6397      18 -58.5874      19 -58.6579      20 -59.1205
      21 -58.7842      22 -58.6059      23 -58.5240      24 -58.6906      25 -58.6736
      26 -58.5896      27 -59.0944      28 -58.6912      29 -58.7946      30 -58.6029
      31 -58.6845      32 -58.3930      33 -58.6861      34 -58.7430      35 -58.4295
      36 -58.5740      37 -58.6222      38 -58.7156      39 -58.5624      40 -58.6302
      41 -58.7403      42 -58.6439      43 -58.2151      44 -58.4031      45 -58.7375
      46 -58.5961      47 -58.5817      48 -58.5548      49 -58.7394      50 -58.6220
      51 -58.5638      52 -58.7128      53 -58.5969      54 -58.6933      55 -58.6331
      56 -58.6469      57 -58.5798      58 -58.5703      59 -58.6666      60 -58.5888
      61 -58.7735      62 -58.6004      63 -59.3352      64 -58.6662      65 -73.7864
      66 -73.7950      67 -74.0582      68 -74.0869      69 -73.6920      70 -73.5957
      71 -73.8553      72 -73.8047      73 -74.3606      74 -73.8507      75 -73.7036
      76 -73.7791      77 -73.9396      78 -73.8865      79 -73.9353      80 -73.8586
      81 -73.8082      82 -73.7747      83 -74.0310      84 -74.0793      85 -73.8673
      86 -73.7841      87 -73.9576      88 -73.9105      89 -74.0838      90 -73.9660
      91 -73.7920      92 -73.8300      93 -74.1113      94 -74.0502      95 -73.8083
      96 -73.6242      97 -73.7180      98 -73.7476      99 -74.0964     100 -73.7311
     101 -73.7915     102 -73.9186     103 -73.9049     104 -74.2517     105 -73.9961
     106 -74.0843     107 -74.0746     108 -74.0970     109 -73.8069     110 -73.6131
     111 -73.8041     112 -73.8455     113 -74.5405     114 -73.8063     115 -73.8998
     116 -73.7857     117 -73.8597     118 -73.9081     119 -73.8834     120 -74.1172
     121 -73.8041     122 -73.8982     123 -73.7979     124 -73.8316     125 -73.8971
     126 -73.7293     127 -73.7941     128 -73.9342     129 -78.9525     130 -79.1992
     131 -78.9276     132 -78.8649     133 -78.1499     134 -78.1519     135 -79.3668
     136 -78.3340     137 -78.3263     138 -79.0368     139 -78.9481     140 -78.9738
     141 -79.3253     142 -79.1942     143 -78.2731     144 -78.2669     145 -78.3539
     146 -78.3351     147 -79.0095     148 -79.2507     149 -79.2672     150 -78.3764
     151 -78.3755     152 -78.8874     153 -78.4105     154 -78.3981     155 -78.2870
     156 -78.2720     157 -78.7037     158 -78.6715     159 -78.9193     160 -78.3230
     161 -78.3001     162 -78.8635     163 -78.8036     164 -79.2066     165 -78.7975
     166 -78.7932     167 -79.0262     168 -79.1026     169 -78.8907     170 -78.8087
     171 -79.5261     172 -78.7107     173 -78.7724     174 -79.2897     175 -78.7075
     176 -78.9299     177 -78.9487     178 -78.2030     179 -78.6463     180 -79.0296
     181 -78.1612     182 -78.7012     183 -78.7992     184 -78.1885     185 -79.3891
     186 -78.7990     187 -78.2021     188 -79.2605     189 -78.9674     190 -78.6950
     191 -78.5200     192 -78.7095     193 -78.7311     194 -78.4630     195 -78.6817
     196 -79.3030     197 -78.7339     198 -78.9288     199 -79.5251     200 -78.8885
     201 -78.7867     202 -78.8798     203 -78.7506     204 -78.9072     205 -78.8150
     206 -78.9171     207 -78.2525     208 -79.2140     209 -78.9219     210 -78.2733
     211 -79.4083     212 -78.8098     213 -78.7863     214 -78.8492     215 -78.9153
     216 -78.3312     217 -78.9926     218 -78.3451     219 -79.0507     220 -78.3082
     221 -78.8614     222 -78.3289     223 -78.3544     224 -79.1329     225 -78.3108
     226 -78.9310     227 -78.9582     228 -78.7789     229 -78.7906     230 -78.8605
     231 -79.0620     232 -78.7953     233 -78.2230     234 -78.8725     235 -78.2461
     236 -79.2483     237 -78.3414     238 -79.1313     239 -78.3158     240 -78.3498
     241 -78.3429     242 -78.8458     243 -78.2755     244 -78.8066     245 -78.2858
     246 -78.8327     247 -79.2027     248 -78.8340     249 -79.2023     250 -79.1633
     251 -78.3649     252 -78.3843     253 -79.0252     254 -78.8949     255 -79.1122
     256 -79.0328
 
 
 
 E-fermi :  -0.5507     XC(G=0):  -9.2433     alpha+bet : -7.9490


 spin component 1

 k-point     1 :       0.2500    0.2500    0.2500
  band No.  band energies     occupation 
      1     -35.4768      1.00000
      2     -35.4380      1.00000
      3     -35.2968      1.00000
      4     -35.2888      1.00000
      5     -35.2793      1.00000
      6     -35.1229      1.00000
      7     -35.0989      1.00000
      8     -35.0640      1.00000
      9     -35.0098      1.00000
     10     -34.9850      1.00000
     11     -34.9270      1.00000
     12     -34.9021      1.00000
     13     -34.8465      1.00000
     14     -34.8061      1.00000
     15     -34.7861      1.00000
     16     -34.7693      1.00000
     17     -34.7688      1.00000
     18     -34.7644      1.00000
     19     -34.7615      1.00000
     20     -34.7565      1.00000
     21     -34.7558      1.00000
     22     -34.7289      1.00000
     23     -34.7193      1.00000
     24     -34.7166      1.00000
     25     -34.7115      1.00000
     26     -34.7079      1.00000
     27     -34.7071      1.00000
     28     -34.6993      1.00000
     29     -34.6949      1.00000
     30     -34.6912      1.00000
     31     -34.6909      1.00000
     32     -34.6782      1.00000
     33     -34.6742      1.00000
     34     -34.6720      1.00000
     35     -34.6714      1.00000
     36     -34.6682      1.00000
     37     -34.6647      1.00000
     38     -34.6640      1.00000
     39     -34.6632      1.00000
     40     -34.6608      1.00000
     41     -34.6598      1.00000
     42     -34.6593      1.00000
     43     -34.6522      1.00000
     44     -34.6465      1.00000
     45     -34.6410      1.00000
     46     -34.6409      1.00000
     47     -34.6351      1.00000
     48     -34.6318      1.00000
     49     -34.6301      1.00000
     50     -34.6267      1.00000
     51     -34.6266      1.00000
     52     -34.6209      1.00000
     53     -34.6194      1.00000
     54     -34.6169      1.00000
     55     -34.6137      1.00000
     56     -34.6130      1.00000
     57     -34.6118      1.00000
     58     -34.6085      1.00000
     59     -34.6075      1.00000
     60     -34.6003      1.00000
     61     -34.5994      1.00000
     62     -34.5994      1.00000
     63     -34.5971      1.00000
     64     -34.5920      1.00000
     65     -34.5892      1.00000
     66     -34.5888      1.00000
     67     -34.5871      1.00000
     68     -34.5860      1.00000
     69     -34.5858      1.00000
     70     -34.5856      1.00000
     71     -34.5837      1.00000
     72     -34.5834      1.00000
     73     -34.5832      1.00000
     74     -34.5784      1.00000
     75     -34.5750      1.00000
     76     -34.5732      1.00000
     77     -34.5718      1.00000
     78     -34.5700      1.00000
     79     -34.5688      1.00000
     80     -34.5687      1.00000
     81     -34.5625      1.00000
     82     -34.5603      1.00000
     83     -34.5597      1.00000
     84     -34.5591      1.00000
     85     -34.5559      1.00000
     86     -34.5523      1.00000
     87     -34.5519      1.00000
     88     -34.5517      1.00000
     89     -34.5427      1.00000
     90     -34.5412      1.00000
     91     -34.5410      1.00000
     92     -34.5403      1.00000
     93     -34.5340      1.00000
     94     -34.5328      1.00000
     95     -34.5326      1.00000
     96     -34.5304      1.00000
     97     -34.5286      1.00000
     98     -34.5274      1.00000
     99     -34.5264      1.00000
    100     -34.5258      1.00000
    101     -34.5208      1.00000
    102     -34.5203      1.00000
    103     -34.5172      1.00000
    104     -34.5148      1.00000
    105     -34.5137      1.00000
    106     -34.5132      1.00000
    107     -34.5107      1.00000
    108     -34.5103      1.00000
    109     -34.5057      1.00000
    110     -34.5040      1.00000
    111     -34.5022      1.00000
    112     -34.4982      1.00000
    113     -34.4977      1.00000
    114     -34.4961      1.00000
    115     -34.4931      1.00000
    116     -34.4918      1.00000
    117     -34.4909      1.00000
    118     -34.4870      1.00000
    119     -34.4838      1.00000
    120     -34.4786      1.00000
    121     -34.4775      1.00000
    122     -34.4772      1.00000
    123     -34.4766      1.00000
    124     -34.4752      1.00000
    125     -34.4719      1.00000
    126     -34.4718      1.00000
    127     -34.4687      1.00000
    128     -34.4666      1.00000
    129     -34.4647      1.00000
    130     -34.4630      1.00000
    131     -34.4589      1.00000
    132     -34.4576      1.00000
    133     -34.4531      1.00000
    134     -34.4521      1.00000
    135     -34.4497      1.00000
    136     -34.4487      1.00000
    137     -34.4476      1.00000
    138     -34.4463      1.00000
    139     -34.4445      1.00000
    140     -34.4433      1.00000
    141     -34.4404      1.00000
    142     -34.4383      1.00000
    143     -34.4372      1.00000
    144     -34.4352      1.00000
    145     -34.4330      1.00000
    146     -34.4292      1.00000
    147     -34.4280      1.00000
    148     -34.4275      1.00000
    149     -34.4257      1.00000
    150     -34.4213      1.00000
    151     -34.4166      1.00000
    152     -34.4155      1.00000
    153     -34.4148      1.00000
    154     -34.4124      1.00000
    155     -34.4102      1.00000
    156     -34.4070      1.00000
    157     -34.4052      1.00000
    158     -34.4025      1.00000
    159     -34.3962      1.00000
    160     -34.3951      1.00000
[...]
   79        1.570   3.467   0.000   5.036
   80        1.569   3.466   0.000   5.035
   81        1.570   3.467   0.000   5.037
   82        1.569   3.471   0.000   5.040
   83        1.570   3.470   0.000   5.040
   84        1.571   3.479   0.000   5.050
   85        1.569   3.465   0.000   5.034
   86        1.569   3.465   0.000   5.034
   87        1.570   3.474   0.000   5.044
   88        1.571   3.477   0.000   5.048
   89        1.570   3.472   0.000   5.041
   90        1.571   3.473   0.000   5.044
   91        1.569   3.464   0.000   5.032
   92        1.569   3.463   0.000   5.032
   93        1.570   3.473   0.000   5.042
   94        1.571   3.469   0.000   5.040
   95        1.569   3.475   0.000   5.044
   96        1.568   3.467   0.000   5.035
   97        1.571   3.476   0.000   5.047
   98        1.569   3.467   0.000   5.036
   99        1.570   3.466   0.000   5.037
  100        1.568   3.462   0.000   5.030
  101        1.568   3.463   0.000   5.031
  102        1.570   3.471   0.000   5.041
  103        1.569   3.467   0.000   5.035
  104        1.570   3.461   0.000   5.031
  105        1.571   3.469   0.000   5.041
  106        1.570   3.472   0.000   5.041
  107        1.572   3.472   0.000   5.044
  108        1.572   3.472   0.000   5.043
  109        1.569   3.469   0.000   5.038
  110        1.571   3.465   0.000   5.036
  111        1.569   3.469   0.000   5.038
  112        1.570   3.466   0.000   5.036
  113        1.573   3.467   0.000   5.039
  114        1.569   3.466   0.000   5.035
  115        1.570   3.468   0.000   5.038
  116        1.569   3.465   0.000   5.034
  117        1.569   3.465   0.000   5.034
  118        1.570   3.464   0.000   5.034
  119        1.569   3.466   0.000   5.035
  120        1.571   3.473   0.000   5.044
  121        1.568   3.463   0.000   5.032
  122        1.569   3.464   0.000   5.033
  123        1.570   3.468   0.000   5.038
  124        1.570   3.468   0.000   5.038
  125        1.573   3.468   0.000   5.041
  126        1.569   3.468   0.000   5.037
  127        1.569   3.468   0.000   5.038
  128        1.572   3.474   0.000   5.046
  129        1.731   4.383   0.000   6.113
  130        1.732   4.373   0.000   6.105
  131        1.731   4.378   0.000   6.110
  132        1.730   4.383   0.000   6.114
  133        1.729   4.376   0.000   6.106
  134        1.730   4.377   0.000   6.107
  135        1.730   4.379   0.000   6.109
  136        1.730   4.381   0.000   6.110
  137        1.730   4.380   0.000   6.110
  138        1.729   4.382   0.000   6.112
  139        1.730   4.381   0.000   6.112
  140        1.730   4.378   0.000   6.108
  141        1.731   4.384   0.000   6.115
  142        1.731   4.388   0.000   6.118
  143        1.729   4.375   0.000   6.104
  144        1.729   4.376   0.000   6.105
  145        1.730   4.377   0.000   6.106
  146        1.729   4.377   0.000   6.106
  147        1.730   4.381   0.000   6.111
  148        1.730   4.387   0.000   6.117
  149        1.731   4.383   0.000   6.114
  150        1.729   4.373   0.000   6.102
  151        1.729   4.375   0.000   6.104
  152        1.729   4.386   0.000   6.115
  153        1.729   4.374   0.000   6.103
  154        1.729   4.374   0.000   6.103
  155        1.730   4.376   0.000   6.106
  156        1.729   4.375   0.000   6.104
  157        1.731   4.380   0.000   6.112
  158        1.731   4.382   0.000   6.113
  159        1.729   4.381   0.000   6.110
  160        1.730   4.378   0.000   6.107
  161        1.730   4.378   0.000   6.108
  162        1.731   4.380   0.000   6.111
  163        1.731   4.380   0.000   6.110
  164        1.730   4.383   0.000   6.113
  165        1.730   4.380   0.000   6.110
  166        1.731   4.378   0.000   6.108
  167        1.730   4.380   0.000   6.110
  168        1.731   4.377   0.000   6.108
  169        1.731   4.382   0.000   6.112
  170        1.730   4.378   0.000   6.108
  171        1.731   4.381   0.000   6.112
  172        1.731   4.382   0.000   6.113
  173        1.730   4.378   0.000   6.108
  174        1.730   4.388   0.000   6.118
  175        1.731   4.383   0.000   6.114
  176        1.730   4.384   0.000   6.114
  177        1.729   4.384   0.000   6.113
  178        1.729   4.374   0.000   6.103
  179        1.730   4.382   0.000   6.112
  180        1.729   4.380   0.000   6.109
  181        1.729   4.374   0.000   6.104
  182        1.731   4.382   0.000   6.113
  183        1.730   4.379   0.000   6.109
  184        1.729   4.371   0.000   6.100
  185        1.732   4.381   0.000   6.112
  186        1.730   4.377   0.000   6.107
  187        1.729   4.372   0.000   6.101
  188        1.730   4.388   0.000   6.119
  189        1.729   4.379   0.000   6.108
  190        1.730   4.379   0.000   6.109
  191        1.730   4.373   0.000   6.103
  192        1.730   4.379   0.000   6.109
  193        1.730   4.376   0.000   6.106
  194        1.729   4.374   0.000   6.103
  195        1.730   4.377   0.000   6.106
  196        1.731   4.385   0.000   6.116
  197        1.730   4.385   0.000   6.115
  198        1.730   4.381   0.000   6.111
  199        1.731   4.384   0.000   6.114
  200        1.729   4.385   0.000   6.115
  201        1.731   4.384   0.000   6.115
  202        1.730   4.374   0.000   6.104
  203        1.730   4.377   0.000   6.107
  204        1.730   4.376   0.000   6.106
  205        1.730   4.377   0.000   6.108
  206        1.730   4.382   0.000   6.113
  207        1.729   4.373   0.000   6.102
  208        1.730   4.389   0.000   6.119
  209        1.729   4.382   0.000   6.111
  210        1.729   4.371   0.000   6.101
  211        1.730   4.384   0.000   6.114
  212        1.730   4.379   0.000   6.109
  213        1.729   4.382   0.000   6.111
  214        1.731   4.377   0.000   6.108
  215        1.730   4.379   0.000   6.109
  216        1.730   4.378   0.000   6.107
  217        1.730   4.377   0.000   6.107
  218        1.730   4.378   0.000   6.108
  219        1.730   4.380   0.000   6.110
  220        1.729   4.373   0.000   6.102
  221        1.729   4.380   0.000   6.110
  222        1.729   4.373   0.000   6.102
  223        1.730   4.378   0.000   6.108
  224        1.730   4.384   0.000   6.115
  225        1.730   4.375   0.000   6.105
  226        1.730   4.382   0.000   6.112
  227        1.729   4.387   0.000   6.116
  228        1.731   4.381   0.000   6.112
  229        1.731   4.381   0.000   6.111
  230        1.730   4.382   0.000   6.112
  231        1.731   4.379   0.000   6.110
  232        1.730   4.381   0.000   6.110
  233        1.729   4.375   0.000   6.104
  234        1.730   4.381   0.000   6.111
  235        1.729   4.373   0.000   6.103
  236        1.730   4.387   0.000   6.118
  237        1.730   4.375   0.000   6.104
  238        1.730   4.388   0.000   6.118
  239        1.730   4.374   0.000   6.104
  240        1.730   4.378   0.000   6.108
  241        1.730   4.378   0.000   6.108
  242        1.731   4.377   0.000   6.108
  243        1.730   4.375   0.000   6.105
  244        1.731   4.381   0.000   6.112
  245        1.730   4.376   0.000   6.106
  246        1.730   4.383   0.000   6.114
  247        1.730   4.383   0.000   6.112
  248        1.731   4.379   0.000   6.110
  249        1.732   4.380   0.000   6.112
  250        1.731   4.385   0.000   6.116
  251        1.729   4.373   0.000   6.102
  252        1.729   4.374   0.000   6.103
  253        1.730   4.385   0.000   6.115
  254        1.731   4.382   0.000   6.113
  255        1.732   4.377   0.000   6.109
  256        1.730   4.385   0.000   6.115
--------------------------------------------------
tot        342.3521196.119 112.8051651.276
 


 magnetization (x)
 
# of ion       s       p       d       tot
------------------------------------------
    1        0.000   0.000   0.000   0.000
    2       -0.000  -0.000  -0.000  -0.000
    3        0.000  -0.000  -0.000  -0.000
    4        0.000  -0.000  -0.000  -0.000
    5        0.000   0.000   0.000   0.000
    6        0.000   0.000  -0.000   0.000
    7        0.000   0.000   0.000   0.000
    8        0.000   0.000   0.000   0.000
    9        0.000   0.000   0.000   0.000
   10       -0.000  -0.000   0.000  -0.000
   11        0.000   0.000   0.000   0.000
   12        0.000  -0.000  -0.000  -0.000
   13        0.000   0.000  -0.000   0.000
   14        0.000   0.000   0.000   0.000
   15       -0.000  -0.000  -0.000  -0.000
   16       -0.000   0.000   0.000   0.000
   17        0.000   0.000   0.000   0.000
   18        0.000   0.000   0.000   0.000
   19       -0.000  -0.000  -0.000  -0.000
   20        0.000   0.000   0.000   0.000
   21        0.000   0.000   0.000   0.000
   22        0.000   0.000   0.000   0.000
   23        0.000  -0.000   0.000   0.000
   24        0.000   0.000   0.000   0.000
   25        0.000   0.000   0.000   0.000
   26        0.000   0.000  -0.000   0.000
   27        0.000  -0.000   0.000   0.000
   28        0.000   0.000   0.000   0.000
   29        0.000   0.000   0.000   0.000
   30        0.000   0.000   0.000   0.000
   31       -0.000  -0.000   0.000  -0.000
   32        0.000   0.000   0.000   0.000
   33       -0.000   0.000  -0.000  -0.000
   34        0.000   0.000  -0.000  -0.000
   35        0.000  -0.000   0.000   0.000
   36        0.000  -0.000   0.000   0.000
   37        0.000   0.000  -0.000  -0.000
   38        0.000  -0.000  -0.000  -0.000
   39        0.000  -0.000  -0.000  -0.000
   40       -0.000  -0.000   0.000   0.000
   41        0.000   0.000   0.000   0.000
   42       -0.000  -0.000   0.000   0.000
   43       -0.000  -0.000  -0.000  -0.000
   44        0.000  -0.000  -0.000  -0.000
   45        0.000  -0.000   0.000   0.000
   46        0.000   0.000  -0.000   0.000
   47       -0.000   0.000   0.000   0.000
   48        0.000  -0.000   0.000   0.000
   49        0.000   0.000  -0.000   0.000
   50        0.000   0.000   0.000   0.000
   51       -0.000   0.000  -0.000  -0.000
   52        0.000   0.000  -0.000  -0.000
   53        0.000  -0.000   0.000   0.000
   54       -0.000  -0.000  -0.000  -0.000
   55       -0.000  -0.000  -0.000  -0.000
   56        0.000   0.000   0.000   0.000
   57        0.000   0.000   0.000   0.000
   58       -0.000  -0.000   0.000   0.000
   59        0.000   0.000   0.000   0.000
   60        0.000   0.000   0.000   0.000
   61        0.000   0.000   0.000   0.000
   62       -0.000  -0.000   0.000   0.000
   63       -0.000   0.000  -0.000  -0.000
   64       -0.000   0.000  -0.000  -0.000
   65        0.000   0.000   0.000   0.000
   66       -0.000   0.000   0.000   0.000
   67       -0.000  -0.000   0.000  -0.000
   68        0.000   0.000   0.000   0.000
   69        0.000  -0.000   0.000  -0.000
   70       -0.000  -0.000   0.000  -0.000
   71       -0.000   0.000   0.000   0.000
   72        0.000   0.000   0.000   0.000
   73        0.000  -0.000   0.000  -0.000
   74       -0.000  -0.000   0.000  -0.000
   75        0.000   0.000   0.000   0.000
   76       -0.000   0.000   0.000   0.000
   77        0.000   0.000   0.000   0.000
   78        0.000   0.000   0.000   0.000
   79       -0.000   0.000   0.000   0.000
   80       -0.000  -0.000   0.000  -0.000
   81        0.000   0.000   0.000   0.000
   82        0.000   0.000   0.000   0.000
   83        0.000   0.000   0.000   0.000
   84       -0.000  -0.000   0.000  -0.000
   85       -0.000   0.000   0.000   0.000
   86        0.000   0.000   0.000   0.000
   87       -0.000  -0.000   0.000  -0.000
   88       -0.000  -0.000   0.000  -0.000
   89       -0.000  -0.000   0.000  -0.000
   90        0.000  -0.000   0.000  -0.000
   91        0.000   0.000   0.000   0.000
   92       -0.000   0.000   0.000   0.000
   93       -0.000  -0.000   0.000  -0.000
   94        0.000   0.000   0.000   0.000
   95       -0.000  -0.000   0.000  -0.000
   96        0.000   0.000   0.000   0.000
   97        0.000   0.000   0.000   0.000
   98        0.000  -0.000   0.000  -0.000
   99       -0.000  -0.000   0.000  -0.000
  100        0.000   0.000   0.000   0.000
  101       -0.000   0.000   0.000   0.000
  102        0.000  -0.000   0.000  -0.000
  103       -0.000   0.000   0.000   0.000
  104        0.000   0.000   0.000   0.000
  105        0.000  -0.000   0.000  -0.000
  106       -0.000  -0.000   0.000  -0.000
  107       -0.000  -0.000   0.000  -0.000
  108       -0.000  -0.000   0.000  -0.000
  109       -0.000  -0.000   0.000  -0.000
  110       -0.000  -0.000   0.000  -0.000
  111       -0.000   0.000   0.000   0.000
  112        0.000  -0.000   0.000  -0.000
  113        0.000   0.000   0.000   0.000
  114        0.000  -0.000   0.000  -0.000
  115       -0.000  -0.000   0.000  -0.000
  116        0.000   0.000   0.000   0.000
  117        0.000   0.000   0.000   0.000
  118        0.000   0.000   0.000   0.000
  119       -0.000  -0.000   0.000  -0.000
  120        0.000  -0.000   0.000  -0.000
  121        0.000   0.000   0.000   0.000
  122        0.000   0.000   0.000   0.000
  123        0.000   0.000   0.000   0.000
  124        0.000   0.000   0.000   0.000
  125       -0.000   0.000   0.000   0.000
  126        0.000  -0.000   0.000  -0.000
  127        0.000  -0.000   0.000  -0.000
  128       -0.000  -0.000   0.000  -0.000
  129       -0.000   0.000   0.000  -0.000
  130        0.000  -0.000   0.000  -0.000
  131       -0.000   0.000   0.000  -0.000
  132        0.000  -0.000   0.000  -0.000
  133       -0.000   0.000   0.000   0.000
  134       -0.000   0.000   0.000   0.000
  135       -0.000  -0.000   0.000  -0.000
  136       -0.000   0.000   0.000   0.000
  137       -0.000   0.000   0.000  -0.000
  138        0.000  -0.000   0.000  -0.000
  139       -0.000  -0.000   0.000  -0.000
  140       -0.000  -0.000   0.000  -0.000
  141       -0.000   0.000   0.000  -0.000
  142       -0.000  -0.000   0.000  -0.000
  143        0.000   0.000   0.000   0.000
  144        0.000  -0.000   0.000  -0.000
  145        0.000  -0.000   0.000  -0.000
  146        0.000  -0.000   0.000  -0.000
  147        0.000   0.000   0.000   0.000
  148       -0.000   0.000   0.000  -0.000
  149       -0.000   0.000   0.000  -0.000
  150        0.000  -0.000   0.000  -0.000
  151        0.000  -0.000   0.000  -0.000
  152       -0.000  -0.000   0.000  -0.000
  153       -0.000  -0.000   0.000  -0.000
  154       -0.000  -0.000   0.000  -0.000
  155        0.000  -0.000   0.000   0.000
  156        0.000  -0.000   0.000  -0.000
  157       -0.000  -0.000   0.000  -0.000
  158       -0.000  -0.000   0.000  -0.000
  159        0.000  -0.000   0.000  -0.000
  160        0.000  -0.000   0.000  -0.000
  161       -0.000  -0.000   0.000  -0.000
  162       -0.000   0.000   0.000   0.000
  163        0.000   0.000   0.000   0.000
  164        0.000   0.000   0.000   0.000
  165        0.000  -0.000   0.000  -0.000
  166        0.000  -0.000   0.000  -0.000
  167        0.000  -0.000   0.000  -0.000
  168        0.000  -0.000   0.000   0.000
  169        0.000   0.000   0.000   0.000
  170        0.000  -0.000   0.000  -0.000
  171        0.000   0.000   0.000   0.000
  172       -0.000  -0.000   0.000  -0.000
  173       -0.000   0.000   0.000  -0.000
  174        0.000   0.000   0.000   0.000
  175       -0.000  -0.000   0.000  -0.000
  176        0.000   0.000   0.000   0.000
  177        0.000   0.000   0.000   0.000
  178        0.000  -0.000   0.000  -0.000
  179       -0.000   0.000   0.000   0.000
  180        0.000  -0.000   0.000   0.000
  181        0.000  -0.000   0.000  -0.000
  182       -0.000   0.000   0.000  -0.000
  183       -0.000  -0.000   0.000  -0.000
  184        0.000  -0.000   0.000  -0.000
  185        0.000   0.000   0.000   0.000
  186       -0.000  -0.000   0.000  -0.000
  187        0.000   0.000   0.000   0.000
  188        0.000   0.000   0.000   0.000
  189       -0.000  -0.000   0.000  -0.000
  190        0.000  -0.000   0.000  -0.000
  191       -0.000  -0.000   0.000  -0.000
  192        0.000  -0.000   0.000  -0.000
  193       -0.000  -0.000   0.000  -0.000
  194        0.000  -0.000   0.000  -0.000
  195       -0.000  -0.000   0.000  -0.000
  196        0.000   0.000   0.000   0.000
  197       -0.000   0.000   0.000   0.000
  198       -0.000  -0.000   0.000  -0.000
  199       -0.000   0.000   0.000   0.000
  200       -0.000  -0.000   0.000  -0.000
  201        0.000   0.000   0.000   0.000
  202       -0.000  -0.000   0.000  -0.000
  203        0.000  -0.000   0.000   0.000
  204        0.000  -0.000   0.000  -0.000
  205        0.000   0.000   0.000   0.000
  206       -0.000  -0.000   0.000  -0.000
  207       -0.000  -0.000   0.000  -0.000
  208       -0.000  -0.000   0.000  -0.000
  209       -0.000   0.000   0.000  -0.000
  210        0.000  -0.000   0.000  -0.000
  211        0.000   0.000   0.000   0.000
  212       -0.000  -0.000   0.000  -0.000
  213        0.000  -0.000   0.000  -0.000
  214        0.000  -0.000   0.000  -0.000
  215       -0.000  -0.000   0.000  -0.000
  216        0.000   0.000   0.000   0.000
  217        0.000   0.000   0.000   0.000
  218        0.000   0.000   0.000   0.000
  219        0.000  -0.000   0.000   0.000
  220        0.000   0.000   0.000   0.000
  221        0.000  -0.000   0.000  -0.000
  222        0.000  -0.000   0.000  -0.000
  223        0.000  -0.000   0.000  -0.000
  224        0.000  -0.000   0.000  -0.000
  225       -0.000   0.000   0.000   0.000
  226        0.000  -0.000   0.000  -0.000
  227        0.000   0.000   0.000   0.000
  228       -0.000  -0.000   0.000  -0.000
  229        0.000  -0.000   0.000  -0.000
  230        0.000  -0.000   0.000  -0.000
  231       -0.000  -0.000   0.000  -0.000
  232       -0.000  -0.000   0.000  -0.000
  233       -0.000  -0.000   0.000  -0.000
  234       -0.000  -0.000   0.000  -0.000
  235        0.000  -0.000   0.000  -0.000
  236        0.000   0.000   0.000   0.000
  237        0.000  -0.000   0.000  -0.000
  238       -0.000  -0.000   0.000  -0.000
  239       -0.000  -0.000   0.000  -0.000
  240       -0.000   0.000   0.000   0.000
  241        0.000   0.000   0.000   0.000
  242       -0.000  -0.000   0.000  -0.000
  243        0.000   0.000   0.000   0.000
  244       -0.000   0.000   0.000  -0.000
  245       -0.000   0.000   0.000   0.000
  246        0.000   0.000   0.000   0.000
  247        0.000   0.000   0.000   0.000
  248       -0.000   0.000   0.000   0.000
  249       -0.000  -0.000   0.000  -0.000
  250        0.000   0.000   0.000   0.000
  251        0.000  -0.000   0.000  -0.000
  252        0.000   0.000   0.000   0.000
  253       -0.000   0.000   0.000  -0.000
  254       -0.000   0.000   0.000  -0.000
  255        0.000  -0.000   0.000  -0.000
  256        0.000  -0.000   0.000  -0.000
--------------------------------------------------
tot          0.000  -0.000   0.000  -0.000
 

 total amount of memory used by VASP MPI-rank0   385344. kBytes
=======================================================================

   base      :      30000. kBytes
   nonlr-proj:      71532. kBytes
   fftplans  :      38725. kBytes
   grid      :      49123. kBytes
   one-center:        995. kBytes
   wavefun   :     194969. kBytes
 
  
  
 General timing and accounting informations for this job:
 ========================================================
  
                  Total CPU time used (sec):     1402.438
                            User time (sec):     1351.263
                          System time (sec):       51.175
                         Elapsed time (sec):     1449.491
  
                   Maximum memory used (kb):      712872.
                   Average memory used (kb):           0.
  
                          Minor page faults:        50813
                          Major page faults:            2
                 Voluntary context switches:       475933
