 vasp.6.3.0 20Jan22 (build Jan 25 2022 13:20:17) complex                        
  
 executed on             LinuxIFC date 2024.06.12  12:02:35
 running on   80 total cores
 distrk:  each k-point on   80 cores,    1 groups
 distr:  one band on NCORE=   8 cores,   10 groups


--------------------------------------------------------------------------------------------------------


 INCAR:
   SYSTEM = LTO
   ISTART = 1
   ENCUT = 700.0
   IALGO = 38
   EDIFF = 1E-6
   PREC = Accurate
   ISPIN = 2
   LMAXMIX = 4
   ADDGRID = .TRUE.
   LASPH = .TRUE.
   LREAL = Auto
   ROPT = 1E-4 1E-4 1E-4
   GGA = PS
   LDAU = .TRUE.
   LDAUTYPE = 2
   LDAUL = 2   -1    -1
   LDAUU = 4.2  0.0  0.0
   LDAUJ = 0.0  0.0  0.0
   NSW = 100
   EDIFFG = -0.01
   IBRION = 1
   ISIF = 3
   ISMEAR = 0
   SIGMA = 0.01
   ISYM = 0
   LORBIT = 11
   NEDOS = 3001
   NWRITE = 2
   NCORE = 8

 POTCAR:   PAW_PBE Ti_pv 07Sep2000                
 POTCAR:   PAW_PBE O 08Apr2002                    
 POTCAR:    PAW_PBE F 08Apr2002                   
 -----------------------------------------------------------------------------
|                                                                             |
|           W    W    AA    RRRRR   N    N  II  N    N   GGGG   !!!           |
|           W    W   A  A   R    R  NN   N  II  NN   N  G    G  !!!           |
|           W    W  A    A  R    R  N N  N  II  N N  N  G       !!!           |
|           W WW W  AAAAAA  RRRRR   N  N N  II  N  N N  G  GGG   !            |
|           WW  WW  A    A  R   R   N   NN  II  N   NN  G    G                |
|           W    W  A    A  R    R  N    N  II  N    N   GGGG   !!!           |
|                                                                             |
|     You use a magnetic or noncollinear calculation, but did not specify     |
|     the initial magnetic moment with the MAGMOM tag. Note that a            |
|     default of 1 will be used for all atoms. This ferromagnetic setup       |
|     may break the symmetry of the crystal, in particular it may rule        |
|     out finding an antiferromagnetic solution. Thence, we recommend         |
|     setting the initial magnetic moment manually or verifying carefully     |
|     that this magnetic setup is desired.                                    |
|                                                                             |
 -----------------------------------------------------------------------------

 POTCAR:   PAW_PBE Ti_pv 07Sep2000                
   VRHFIN =Ti: d3 s1                                                                                
   LEXCH  = PE                                                                                      
   EATOM  =  1042.3781 eV,   76.6126 Ry                                                             
                                                                                                    
   TITEL  = PAW_PBE Ti_pv 07Sep2000                                                                 
   LULTRA =        F    use ultrasoft PP ?                                                          
   IUNSCR =        1    unscreen: 0-lin 1-nonlin 2-no                                               
   RPACOR =    2.200    partial core radius                                                         
   POMASS =   47.880; ZVAL   =   10.000    mass and valenz                                          
   RCORE  =    2.500    outmost cutoff radius                                                       
   RWIGS  =    2.500; RWIGS  =    1.323    wigner-seitz radius (au A)                               
   ENMAX  =  222.338; ENMIN  =  166.753 eV                                                          
   RCLOC  =    1.701    cutoff for local pot                                                        
   LCOR   =        T    correct aug charges                                                         
   LPAW   =        T    paw PP                                                                      
   EAUG   =  482.848                                                                                
   DEXC   =    -.008                                                                                
   RMAX   =    3.092    core radius for proj-oper                                                   
   RAUG   =    1.300    factor for augmentation sphere                                              
   RDEP   =    2.538    radius for radial grids                                                     
   QCUT   =   -4.042; QGAM   =    8.085    optimization parameters                                  
                                                                                                    
   Description                                                                                      
     l     E      TYP  RCUT    TYP  RCUT                                                            
     1   .000     23  2.300                                                                         
     1  -.100     23  2.300                                                                         
     2   .000     23  2.500                                                                         
     2   .000     23  2.500                                                                         
     0   .000     23  2.500                                                                         
     0  1.500     23  2.500                                                                         
     3   .000      7   .000                                                                         
  local pseudopotential read in
  partial core-charges read in
  atomic valenz-charges read in
  non local Contribution for L=           1  read in
    real space projection operators read in
  non local Contribution for L=           1  read in
    real space projection operators read in
  non local Contribution for L=           2  read in
    real space projection operators read in
  non local Contribution for L=           2  read in
    real space projection operators read in
  non local Contribution for L=           0  read in
    real space projection operators read in
  non local Contribution for L=           0  read in
    real space projection operators read in
    PAW grid and wavefunctions read in
 
   number of l-projection  operators is LMAX  =           6
   number of lm-projection operators is LMMAX =          18
 
 POTCAR:   PAW_PBE O 08Apr2002                    
   VRHFIN =O: s2p4                                                                                  
   LEXCH  = PE                                                                                      
   EATOM  =   432.3788 eV,   31.7789 Ry                                                             
                                                                                                    
   TITEL  = PAW_PBE O 08Apr2002                                                                     
   LULTRA =        F    use ultrasoft PP ?                                                          
   IUNSCR =        0    unscreen: 0-lin 1-nonlin 2-no                                               
   RPACOR =     .000    partial core radius                                                         
   POMASS =   16.000; ZVAL   =    6.000    mass and valenz                                          
   RCORE  =    1.520    outmost cutoff radius                                                       
   RWIGS  =    1.550; RWIGS  =     .820    wigner-seitz radius (au A)                               
   ENMAX  =  400.000; ENMIN  =  300.000 eV                                                          
   ICORE  =        2    local potential                                                             
   LCOR   =        T    correct aug charges                                                         
   LPAW   =        T    paw PP                                                                      
   EAUG   =  605.392                                                                                
   DEXC   =     .000                                                                                
   RMAX   =    2.264    core radius for proj-oper                                                   
   RAUG   =    1.300    factor for augmentation sphere                                              
   RDEP   =    1.550    radius for radial grids                                                     
   QCUT   =   -5.520; QGAM   =   11.041    optimization parameters                                  
                                                                                                    
   Description                                                                                      
     l     E      TYP  RCUT    TYP  RCUT                                                            
     0   .000     23  1.200                                                                         
     0  -.700     23  1.200                                                                         
     1   .000     23  1.520                                                                         
     1   .600     23  1.520                                                                         
     2   .000      7  1.500                                                                         
  local pseudopotential read in
  atomic valenz-charges read in
  non local Contribution for L=           0  read in
    real space projection operators read in
  non local Contribution for L=           0  read in
    real space projection operators read in
  non local Contribution for L=           1  read in
    real space projection operators read in
  non local Contribution for L=           1  read in
    real space projection operators read in
    PAW grid and wavefunctions read in
 
   number of l-projection  operators is LMAX  =           4
   number of lm-projection operators is LMMAX =           8
 
 POTCAR:    PAW_PBE F 08Apr2002                   
   VRHFIN =F: s2p5                                                                                  
   LEXCH  = PE                                                                                      
   EATOM  =   659.6475 eV,   48.4827 Ry                                                             
                                                                                                    
   TITEL  = PAW_PBE F 08Apr2002                                                                     
   LULTRA =        F    use ultrasoft PP ?                                                          
   IUNSCR =        1    unscreen: 0-lin 1-nonlin 2-no                                               
   RPACOR =    1.200    partial core radius                                                         
   POMASS =   18.998; ZVAL   =    7.000    mass and valenz                                          
   RCORE  =    1.520    outmost cutoff radius                                                       
   RWIGS  =    1.500; RWIGS  =    0.794    wigner-seitz radius (au A)                               
   ENMAX  =  400.000; ENMIN  =  300.000 eV                                                          
   ICORE  =        2    local potential                                                             
   LCOR   =        T    correct aug charges                                                         
   LPAW   =        T    paw PP                                                                      
   EAUG   =  613.614                                                                                
   RMAX   =    1.555    core radius for proj-oper                                                   
   RAUG   =    1.300    factor for augmentation sphere                                              
   RDEP   =    1.539    radius for radial grids                                                     
   RDEPT  =    1.299    core radius for aug-charge                                                  
                                                                                                    
   Atomic configuration                                                                             
    4 entries                                                                                       
     n  l   j            E        occ.                                                              
     1  0  0.50      -663.3661   2.0000                                                             
     2  0  0.50       -29.8995   2.0000                                                             
     2  1  0.50       -11.1114   5.0000                                                             
     3  2  1.50       -10.8847   0.0000                                                             
   Description                                                                                      
     l       E           TYP  RCUT    TYP  RCUT                                                     
     0    -29.8995018     23  1.200                                                                 
     0     -9.5240782     23  1.200                                                                 
     1    -11.1113914     23  1.520                                                                 
     1      1.3605826     23  1.520                                                                 
     2    -10.8846608      7  1.500                                                                 
  local pseudopotential read in
  partial core-charges read in
  partial kinetic energy density read in
  atomic valenz-charges read in
  non local Contribution for L=           0  read in
    real space projection operators read in
  non local Contribution for L=           0  read in
    real space projection operators read in
  non local Contribution for L=           1  read in
    real space projection operators read in
  non local Contribution for L=           1  read in
    real space projection operators read in
    PAW grid and wavefunctions read in
 
   number of l-projection  operators is LMAX  =           4
   number of lm-projection operators is LMMAX =           8
 
 Optimization of the real space projectors (new method)

 maximal supplied QI-value         = 15.12
 optimisation between [QCUT,QGAM] = [ 13.45, 27.06] = [ 50.69,205.06] Ry 
 Optimized for a Real-space Cutoff    1.49 Angstroem

   l    n(q)    QCUT    max X(q) W(low)/X(q) W(high)/X(q)  e(spline) 
   1     12    13.455     4.841    0.13E-05    0.83E-06    0.56E-07
   1     12    13.455     5.701    0.32E-04    0.25E-04    0.17E-06
   2     11    13.455     4.569    0.64E-05    0.34E-05    0.50E-07
   2     11    13.455    32.276    0.49E-04    0.38E-04    0.46E-06
   0     12    13.455    30.046    0.17E-04    0.41E-05    0.51E-07
   0     12    13.455    45.433    0.12E-04    0.27E-04    0.38E-06
 Optimization of the real space projectors (new method)

 maximal supplied QI-value         = 24.76
 optimisation between [QCUT,QGAM] = [ 13.37, 26.98] = [ 50.04,203.89] Ry 
 Optimized for a Real-space Cutoff    1.17 Angstroem

   l    n(q)    QCUT    max X(q) W(low)/X(q) W(high)/X(q)  e(spline) 
   0      9    13.368     4.192    0.20E-04    0.58E-05    0.56E-07
   0      9    13.368     8.473    0.60E-04    0.52E-04    0.21E-06
   1      9    13.368     2.474    0.22E-04    0.17E-04    0.28E-07
   1      9    13.368     3.912    0.94E-04    0.97E-04    0.20E-06
 Optimization of the real space projectors (new method)

 maximal supplied QI-value         = 24.76
 optimisation between [QCUT,QGAM] = [ 13.37, 26.98] = [ 50.04,203.89] Ry 
 Optimized for a Real-space Cutoff    1.17 Angstroem

   l    n(q)    QCUT    max X(q) W(low)/X(q) W(high)/X(q)  e(spline) 
   0      9    13.368    14.049    0.39E-04    0.34E-04    0.16E-06
   0      9    13.368     8.945    0.54E-04    0.47E-04    0.20E-06
   1      9    13.368     7.086    0.99E-04    0.10E-03    0.23E-06
   1      9    13.368     6.747    0.86E-04    0.89E-04    0.21E-06
 -----------------------------------------------------------------------------
|                                                                             |
|               ----> ADVICE to this user running VASP <----                  |
|                                                                             |
|     You enforced a specific xc type in the INCAR file but a different       |
|     type was found in the POTCAR file.                                      |
|     I HOPE YOU KNOW WHAT YOU ARE DOING!                                     |
|                                                                             |
 -----------------------------------------------------------------------------

 PAW_PBE Ti_pv 07Sep2000                :
 energy of atom  1       EATOM=-1042.3781
 kinetic energy error for atom=    0.0006 (will be added to EATOM!!)
 PAW_PBE O 08Apr2002                    :
 energy of atom  2       EATOM= -432.3788
 kinetic energy error for atom=    0.0091 (will be added to EATOM!!)
  PAW_PBE F 08Apr2002                   :
 energy of atom  3       EATOM= -659.6475
 kinetic energy error for atom=    0.0140 (will be added to EATOM!!)
 
 
 POSCAR: Ti27 O27 F54
  positions in direct lattice
  velocities in cartesian coordinates
 exchange correlation table for  LEXCH =       14
   RHO(1)=    0.500       N(1)  =     2000
   RHO(2)=  100.500       N(2)  =     4000
 


--------------------------------------------------------------------------------------------------------


 ion  position               nearest neighbor table
   1  0.001  0.988  0.999-  29 1.78  92 1.92  91 1.92  73 1.94  86 1.94  55 2.05
   2  0.990  0.009  0.343-  42 1.83  46 1.83  28 1.86  60 2.05  91 2.09  74 2.10
   3  0.990  0.993  0.656-  46 1.82  43 1.85  30 1.87  56 2.05  75 2.09  92 2.10
   4  0.989  0.332  0.990-  44 1.81  47 1.83  55 1.96  57 1.96  93 2.05  76 2.07
   5  0.013  0.323  0.333-  28 1.79  37 1.81  93 1.95  94 1.95  58 2.05  87 2.14
   6  0.988  0.333  0.676-  45 1.80  47 1.83  59 1.94  56 1.95  94 2.04  77 2.12
   7  0.999  0.673  0.010-  48 1.79  29 1.88  88 1.95  78 1.96  57 2.01  96 2.04
   8  0.011  0.666  0.326-  38 1.80  48 1.87  60 1.94  58 1.95  95 2.03  89 2.08
   9  0.009  0.678  0.668-  30 1.80  39 1.84  96 1.96  95 1.97  90 2.05  59 2.07
  10  0.345  0.999  0.007-  40 1.79  49 1.86  64 1.94  61 1.95  98 2.03  73 2.06
  11  0.334  0.001  0.320-  49 1.78  74 1.91  79 1.92  65 1.92  62 1.93  97 2.10
  12  0.333  0.009  0.666-  31 1.82  75 1.90  80 1.91  97 1.92  98 1.93  66 2.00
  13  0.333  0.341  0.014-  50 1.79  32 1.86  76 1.94  81 1.94  61 2.04 100 2.11
  14  0.324  0.343  0.325-  37 1.82  33 1.82  50 1.86  99 2.06  62 2.08  82 2.09
  15  0.333  0.324  0.667-  31 1.83  77 1.91  83 1.91 100 1.92  99 1.92  63 2.01
  16  0.340  0.656  0.000-  32 1.80  41 1.88 102 1.94 101 1.94  78 2.02  64 2.07
  17  0.327  0.656  0.342-  33 1.82  51 1.86  38 1.87  84 2.04 101 2.06  65 2.09
  18  0.324  0.666  0.655-  51 1.80  39 1.82  66 1.97  63 1.98  85 2.05 102 2.07
  19  0.657  0.012  0.000-  34 1.78  40 1.86 103 1.93 104 1.94  86 2.06  71 2.09
  20  0.678  0.990  0.343-  42 1.81  36 1.84  52 1.85 103 2.05  79 2.09  67 2.09
  21  0.678  1.000  0.656-  43 1.80  52 1.81  72 1.96  68 1.96 104 2.07  80 2.11
  22  0.676  0.326  0.989-  53 1.81  44 1.85  34 1.86  81 2.05  69 2.05 105 2.11
  23  0.666  0.333  0.333- 106 1.89  87 1.89  70 1.89 105 1.89  67 1.89  82 1.90
  24  0.676  0.341  0.678-  53 1.82  45 1.85  35 1.85  68 2.04  83 2.08 106 2.12
  25  0.655  0.668  0.001-  41 1.78 108 1.92  71 1.93 107 1.93  69 1.93  88 2.06
  26  0.666  0.680  0.343-  36 1.78  54 1.82  89 1.94  84 1.95 107 2.07  70 2.12
  27  0.665  0.655  0.656-  35 1.81  54 1.82  90 1.95  85 1.96  72 2.06 108 2.09
  28  0.001  0.168  0.328-   5 1.79   2 1.86
  29  0.999  0.834  0.992-   1 1.78   7 1.88
  30  1.000  0.833  0.676-   9 1.80   3 1.87
  31  0.332  0.166  0.666-  12 1.82  15 1.83
  32  0.334  0.501  0.005-  16 1.80  13 1.86
  33  0.342  0.500  0.327-  14 1.82  17 1.82
  34  0.664  0.166  0.004-  19 1.78  22 1.86
  35  0.665  0.500  0.663-  27 1.81  24 1.85
  36  0.664  0.833  0.326-  26 1.78  20 1.84
  37  0.168  0.338  0.337-   5 1.81  14 1.82
  38  0.166  0.664  0.338-   8 1.80  17 1.87
  39  0.167  0.663  0.663-  18 1.82   9 1.84
  40  0.498  0.992  0.998-  10 1.79  19 1.86
  41  0.501  0.675  0.002-  25 1.78  16 1.88
  42  0.833  0.001  0.329-  20 1.81   2 1.83
  43  0.832  0.010  0.670-  21 1.80   3 1.85
  44  0.834  0.337  0.005-   4 1.81  22 1.85
  45  0.833  0.323  0.663-   6 1.80  24 1.85
  46  0.003  0.998  0.500-   3 1.82   2 1.83
  47  0.003  0.331  0.833-   4 1.83   6 1.83
  48  1.000  0.667  0.165-   7 1.79   8 1.87
  49  0.331  0.008  0.167-  11 1.78  10 1.86
  50  0.337  0.320  0.166-  13 1.79  14 1.86
  51  0.344  0.667  0.501-  18 1.80  17 1.86
  52  0.661  1.000  0.501-  21 1.81  20 1.85
  53  0.664  0.334  0.834-  22 1.81  24 1.82
  54  0.660  0.670  0.500-  27 1.82  26 1.82
  55  1.000  0.165  0.009-   4 1.96   1 2.05
  56  0.017  0.167  0.664-   6 1.95   3 2.05
  57  0.008  0.501  0.999-   4 1.96   7 2.01
  58  0.990  0.499  0.337-   8 1.95   5 2.05
  59  0.996  0.500  0.663-   6 1.94   9 2.07
  60  0.999  0.833  0.331-   8 1.94   2 2.05
  61  0.335  0.166  0.986-  10 1.95  13 2.04
  62  0.333  0.165  0.348-  11 1.93  14 2.08
  63  0.340  0.497  0.671-  18 1.98  15 2.01
  64  0.322  0.834  0.998-  10 1.94  16 2.07
  65  0.340  0.836  0.332-  11 1.92  17 2.09
  66  0.334  0.836  0.670-  18 1.97  12 2.00
  67  0.667  0.170  0.326-  23 1.89  20 2.09
  68  0.651  0.167  0.667-  21 1.96  24 2.04
  69  0.661  0.501  0.002-  25 1.93  22 2.05
  70  0.663  0.497  0.335-  23 1.89  26 2.12
  71  0.679  0.833  0.004-  25 1.93  19 2.09
  72  0.667  0.832  0.674-  21 1.96  27 2.06
  73  0.167  0.005  0.996-   1 1.94  10 2.06
  74  0.170  0.995  0.335-  11 1.91   2 2.10
  75  0.170  0.997  0.669-  12 1.90   3 2.09
  76  0.167  0.328  0.001-  13 1.94   4 2.07
  77  0.170  0.342  0.661-  15 1.91   6 2.12
  78  0.167  0.668  0.995-   7 1.96  16 2.02
  79  0.499  0.008  0.331-  11 1.92  20 2.09
  80  0.497  0.996  0.674-  12 1.91  21 2.11
  81  0.500  0.334  0.999-  13 1.94  22 2.05
  82  0.503  0.326  0.338-  23 1.90  14 2.09
  83  0.498  0.332  0.663-  15 1.91  24 2.08
  84  0.501  0.666  0.318-  26 1.95  17 2.04
  85  0.499  0.671  0.680-  27 1.96  18 2.05
  86  0.834  0.002  0.002-   1 1.94  19 2.06
  87  0.829  0.335  0.331-  23 1.89   5 2.14
  88  0.832  0.659  0.997-   7 1.95  25 2.06
  89  0.833  0.663  0.334-  26 1.94   8 2.08
  90  0.833  0.666  0.669-  27 1.95   9 2.05
  91  0.009  0.994  0.165-   1 1.92   2 2.09
  92  0.003  0.014  0.835-   1 1.92   3 2.10
  93  0.003  0.342  0.166-   5 1.95   4 2.05
  94  0.999  0.334  0.500-   5 1.95   6 2.04
  95  0.991  0.669  0.500-   9 1.97   8 2.03
  96  0.998  0.656  0.835-   9 1.96   7 2.04
  97  0.336  0.994  0.501-  12 1.92  11 2.10
  98  0.329  0.997  0.832-  12 1.93  10 2.03
  99  0.338  0.336  0.502-  15 1.92  14 2.06
 100  0.332  0.334  0.832-  15 1.92  13 2.11
 101  0.328  0.678  0.165-  16 1.94  17 2.06
 102  0.333  0.668  0.834-  16 1.94  18 2.07
 103  0.662  0.000  0.167-  19 1.93  20 2.05
 104  0.666  0.998  0.834-  19 1.94  21 2.07
 105  0.659  0.340  0.170-  23 1.89  22 2.11
 106  0.665  0.327  0.496-  23 1.89  24 2.12
 107  0.674  0.659  0.166-  25 1.93  26 2.07
 108  0.670  0.668  0.836-  25 1.92  27 2.09
 

IMPORTANT INFORMATION: All symmetrisations will be switched off!
NOSYMM: (Re-)initialisation of all symmetry stuff for point group C_1.


----------------------------------------------------------------------------------------

                                     Primitive cell                                     

  volume of cell :    1556.6016

  direct lattice vectors                    reciprocal lattice vectors
    11.599100929 -0.001338515  0.001981173     0.086213582  0.000009731 -0.000014730
    -0.001304722 11.574625896  0.010060135     0.000009983  0.086395947 -0.000075251
     0.001979868  0.010098462 11.594352939    -0.000014740 -0.000074965  0.086248952

  length of vectors
    11.599101176 11.574630341 11.594357506     0.086213584  0.086395981  0.086248986

  position of ions in fractional coordinates (direct lattice)
     0.001176846  0.988255917  0.998935227
     0.989699580  0.008914714  0.343314855
     0.990068125  0.992782506  0.656102044
     0.988940122  0.332429907  0.990180104
     0.012714346  0.323059585  0.332898620
     0.987674965  0.332902602  0.675996495
     0.998789760  0.673234386  0.010393544
     0.011452172  0.665703975  0.325520527
     0.009280726  0.678427010  0.667945319
     0.344539627  0.999417641  0.006694265
     0.333898925  0.001076153  0.320251578
     0.333353348  0.008816972  0.665979214
     0.333213554  0.340719574  0.013827135
     0.323863012  0.343498753  0.324807540
     0.333062594  0.324165654  0.667178217
     0.340369340  0.656334990  0.000114897
     0.326579272  0.655800440  0.341986796
     0.324076647  0.666491000  0.654926409
     0.657441640  0.011963676  0.000425179
     0.677651185  0.990440417  0.342534555
     0.678073084  0.999993146  0.656114973
     0.675771625  0.325515143  0.988822975
     0.665980824  0.333475880  0.332842884
     0.675842642  0.340652184  0.677652484
     0.654847713  0.668196090  0.000709205
     0.666250523  0.679893462  0.342850458
     0.665381892  0.655430360  0.656275864
     0.001317064  0.168485028  0.328224164
     0.998601514  0.834323391  0.991902658
     0.999548252  0.833040654  0.676059253
     0.331530554  0.166270848  0.665766703
     0.333522584  0.500910853  0.004843177
     0.341817038  0.499737844  0.327352749
     0.664138673  0.165793070  0.003845518
     0.664890536  0.499517465  0.663382667
     0.663777187  0.832706237  0.326267581
     0.167618705  0.337675782  0.336612686
     0.165849468  0.664250094  0.337655654
     0.167487304  0.663381209  0.663313151
     0.498382854  0.991509425  0.997704686
     0.501165800  0.675365199  0.002347588
     0.832886609  0.001318971  0.328763640
     0.832434280  0.009581865  0.669963144
     0.833945594  0.337039006  0.005240685
     0.833372437  0.323234551  0.662852710
     0.003378865  0.997999887  0.500181629
     0.002858516  0.331290317  0.833317819
     0.999584054  0.666572752  0.165056744
     0.331067477  0.007842886  0.166556691
     0.336769525  0.319715914  0.166374840
     0.344213201  0.667412290  0.500871360
     0.661406871  0.999694691  0.500946291
     0.664059231  0.333810679  0.833732124
     0.659592925  0.669940263  0.499761867
     0.999913943  0.164753233  0.009498657
     0.016704290  0.167428417  0.663947572
     0.008158714  0.500592626  0.999103692
     0.990312958  0.499032114  0.337373739
     0.995558013  0.500185592  0.662534036
     0.999296659  0.832795275  0.331124984
     0.335405858  0.166387710  0.985630338
     0.332991669  0.165134293  0.348121279
     0.340434653  0.497285876  0.670887811
     0.321959618  0.833888980  0.997524744
     0.340230997  0.835800041  0.332082402
     0.333624355  0.836062032  0.669723178
     0.666523716  0.170098596  0.326016690
     0.651477970  0.166772119  0.667056877
     0.660716108  0.501425998  0.002147915
     0.662695251  0.496849571  0.335238527
     0.679404088  0.832921778  0.004275376
     0.667298001  0.832363043  0.674384435
     0.167303316  0.004529038  0.995815280
     0.169747333  0.995233542  0.335117292
     0.169787848  0.996731422  0.669051084
     0.166919921  0.328022007  0.001376651
     0.169557331  0.341877425  0.660930234
     0.167016152  0.668106650  0.995357515
     0.498814293  0.007775019  0.331493801
     0.497069941  0.995850948  0.674048083
     0.499768335  0.334169250  0.999317871
     0.502658625  0.326264841  0.338222503
     0.497728193  0.332252899  0.663080122
     0.500762025  0.666286139  0.317716200
     0.499026664  0.671033228  0.679918304
     0.834422258  0.002086025  0.001903289
     0.829010155  0.335296309  0.331045814
     0.831892601  0.658961312  0.996834728
     0.832682339  0.663483803  0.334088757
     0.832759106  0.666075205  0.669100462
     0.008682165  0.994173004  0.164573433
     0.003264076  0.013729883  0.835178611
     0.002942748  0.342253067  0.165822230
     0.998955035  0.334233626  0.500400134
     0.990674811  0.669217557  0.499582026
     0.998054754  0.655610138  0.834928715
     0.335878248  0.994224861  0.500964543
     0.328810174  0.997064026  0.832189315
     0.338365809  0.336381484  0.501991340
     0.332434828  0.334446890  0.832032030
     0.327744636  0.678378608  0.165296430
     0.332888429  0.668367006  0.833637792
     0.661963651  0.000436686  0.166739810
     0.666191303  0.997989756  0.834283061
     0.659308617  0.339807105  0.169845525
     0.664828719  0.327354968  0.495802454
     0.674461926  0.658932336  0.165699031
     0.669705561  0.667573338  0.835764134

  ion indices of the primitive-cell ions
   primitive index   ion index
                 1           1
                 2           2
                 3           3
                 4           4
                 5           5
                 6           6
                 7           7
                 8           8
                 9           9
                10          10
                11          11
                12          12
                13          13
                14          14
                15          15
                16          16
                17          17
                18          18
                19          19
                20          20
                21          21
                22          22
                23          23
                24          24
                25          25
                26          26
                27          27
                28          28
                29          29
                30          30
                31          31
                32          32
                33          33
                34          34
                35          35
                36          36
                37          37
                38          38
                39          39
                40          40
                41          41
                42          42
                43          43
                44          44
                45          45
                46          46
                47          47
                48          48
                49          49
                50          50
                51          51
                52          52
                53          53
                54          54
                55          55
                56          56
                57          57
                58          58
                59          59
                60          60
                61          61
                62          62
                63          63
                64          64
                65          65
                66          66
                67          67
                68          68
                69          69
                70          70
                71          71
                72          72
                73          73
                74          74
                75          75
                76          76
                77          77
                78          78
                79          79
                80          80
                81          81
                82          82
                83          83
                84          84
                85          85
                86          86
                87          87
                88          88
                89          89
                90          90
                91          91
                92          92
                93          93
                94          94
                95          95
                96          96
                97          97
                98          98
                99          99
               100         100
               101         101
               102         102
               103         103
               104         104
               105         105
               106         106
               107         107
               108         108

----------------------------------------------------------------------------------------

 
 
 KPOINTS: Title                                   

Automatic generation of k-mesh.
 Grid dimensions read from file:
 generate k-points for:    3    3    3

 Generating k-lattice:

  Cartesian coordinates                     Fractional coordinates (reciprocal lattice)
     0.028737861  0.000003244 -0.000004910     0.333333333  0.000000000 -0.000000000
     0.000003328  0.028798649 -0.000025084     0.000000000  0.333333333 -0.000000000
    -0.000004913 -0.000024988  0.028749651    -0.000000000  0.000000000  0.333333333

  Length of vectors
     0.028737861  0.028798660  0.028749662

  Shift w.r.t. Gamma in fractional coordinates (k-lattice)
     0.000000000  0.000000000  0.000000000

 
 Subroutine IBZKPT returns following result:
 ===========================================
 
 Found     14 irreducible k-points:
 
 Following reciprocal coordinates:
            Coordinates               Weight
  0.000000  0.000000  0.000000      1.000000
  0.333333  0.000000 -0.000000      2.000000
  0.000000  0.333333 -0.000000      2.000000
  0.333333  0.333333  0.000000      2.000000
 -0.333333  0.333333  0.000000      2.000000
 -0.000000  0.000000  0.333333      2.000000
  0.333333  0.000000  0.333333      2.000000
 -0.333333  0.000000  0.333333      2.000000
  0.000000  0.333333  0.333333      2.000000
  0.333333  0.333333  0.333333      2.000000
 -0.333333  0.333333  0.333333      2.000000
 -0.000000 -0.333333  0.333333      2.000000
  0.333333 -0.333333  0.333333      2.000000
 -0.333333 -0.333333  0.333333      2.000000
 
 Following cartesian coordinates:
            Coordinates               Weight
  0.000000  0.000000  0.000000      1.000000
  0.028738  0.000003 -0.000005      2.000000
  0.000003  0.028799 -0.000025      2.000000
  0.028741  0.028802 -0.000030      2.000000
 -0.028735  0.028795 -0.000020      2.000000
 -0.000005 -0.000025  0.028750      2.000000
  0.028733 -0.000022  0.028745      2.000000
 -0.028743 -0.000028  0.028755      2.000000
 -0.000002  0.028774  0.028725      2.000000
  0.028736  0.028777  0.028720      2.000000
 -0.028739  0.028770  0.028729      2.000000
 -0.000008 -0.028824  0.028775      2.000000
  0.028730 -0.028820  0.028770      2.000000
 -0.028746 -0.028827  0.028780      2.000000
 


--------------------------------------------------------------------------------------------------------




 Dimension of arrays:
   k-points           NKPTS =     14   k-points in BZ     NKDIM =     14   number of bands    NBANDS=    540
   number of dos      NEDOS =   3001   number of ions     NIONS =    108
   non local maximal  LDIM  =      6   non local SUM 2l+1 LMDIM =     18
   total plane-waves  NPLWV = ******
   max r-space proj   IRMAX =   8914   max aug-charges    IRDMAX= 199710
   dimension x,y,z NGX =   100 NGY =  100 NGZ =  100
   dimension x,y,z NGXF=   200 NGYF=  200 NGZF=  200
   support grid    NGXF=   400 NGYF=  400 NGZF=  400
   ions per type =              27  27  54
   NGX,Y,Z   is equivalent  to a cutoff of  14.33, 14.36, 14.34 a.u.
   NGXF,Y,Z  is equivalent  to a cutoff of  28.67, 28.73, 28.68 a.u.

 SYSTEM =  LTO                                     
 POSCAR =  Ti27 O27 F54                            

 Startparameter for this run:
   NWRITE =      2    write-flag & timer
   PREC   = accura    normal or accurate (medium, high low for compatibility)
   ISTART =      0    job   : 0-new  1-cont  2-samecut
   ICHARG =      2    charge: 1-file 2-atom 10-const
   ISPIN  =      2    spin polarized calculation?
   LNONCOLLINEAR =      F non collinear calculations
   LSORBIT =      F    spin-orbit coupling
   INIWAV =      1    electr: 0-lowe 1-rand  2-diag
   LASPH  =      T    aspherical Exc in radial PAW
 Electronic Relaxation 1
   ENCUT  =  700.0 eV  51.45 Ry    7.17 a.u.  25.02 24.97 25.01*2*pi/ulx,y,z
   ENINI  =  700.0     initial cutoff
   ENAUG  =  613.6 eV  augmentation charge cutoff
   NELM   =     60;   NELMIN=  2; NELMDL=  0     # of ELM steps 
   EDIFF  = 0.1E-05   stopping-criterion for ELM
   LREAL  =      T    real-space projection
   NLSPLINE    = F    spline interpolate recip. space projectors
   LCOMPAT=      F    compatible to vasp.4.4
   GGA_COMPAT  = T    GGA compatible to vasp.4.4-vasp.4.6
   LMAXPAW     = -100 max onsite density
   LMAXMIX     =    4 max onsite mixed and CHGCAR
   VOSKOWN=      0    Vosko Wilk Nusair interpolation
   ROPT   =   -0.00010  -0.00010  -0.00010
 Ionic relaxation
   EDIFFG = -.1E-01   stopping-criterion for IOM
   NSW    =    100    number of steps for IOM
   NBLOCK =      1;   KBLOCK =    100    inner block; outer block 
   IBRION =      1    ionic relax: 0-MD 1-quasi-New 2-CG
   NFREE  =      0    steps in history (QN), initial steepest desc. (CG)
   ISIF   =      3    stress and relaxation
   IWAVPR =     11    prediction:  0-non 1-charg 2-wave 3-comb
   ISYM   =      0    0-nonsym 1-usesym 2-fastsym
   LCORR  =      T    Harris-Foulkes like correction to forces

   POTIM  = 0.5000    time-step for ionic-motion
   TEIN   =    0.0    initial temperature
   TEBEG  =    0.0;   TEEND  =   0.0 temperature during run
   SMASS  =  -3.00    Nose mass-parameter (am)
   estimated Nose-frequenzy (Omega)   =  0.10E-29 period in steps = 0.13E+47 mass=  -0.307E-26a.u.
   SCALEE = 1.0000    scale energy and forces
   NPACO  =    256;   APACO  = 10.0  distance and # of slots for P.C.
   PSTRESS=    0.0 pullay stress

  Mass of Ions in am
   POMASS =  47.88 16.00 19.00
  Ionic Valenz
   ZVAL   =  10.00  6.00  7.00
  Atomic Wigner-Seitz radii
   RWIGS  =  -1.00 -1.00 -1.00
  virtual crystal weights 
   VCA    =   1.00  1.00  1.00
   NELECT =     810.0000    total number of electrons
   NUPDOWN=      -1.0000    fix difference up-down

 DOS related values:
   EMIN   =  10.00;   EMAX   =-10.00  energy-range for DOS
   EFERMI =   0.00
   ISMEAR =     0;   SIGMA  =   0.01  broadening in eV -4-tet -1-fermi 0-gaus

 Electronic relaxation 2 (details)
   IALGO  =     38    algorithm
   LDIAG  =      T    sub-space diagonalisation (order eigenvalues)
   LSUBROT=      F    optimize rotation matrix (better conditioning)
   TURBO    =      0    0=normal 1=particle mesh
   IRESTART =      0    0=no restart 2=restart with 2 vectors
   NREBOOT  =      0    no. of reboots
   NMIN     =      0    reboot dimension
   EREF     =   0.00    reference energy to select bands
   IMIX   =      4    mixing-type and parameters
     AMIX     =   0.40;   BMIX     =  1.00
     AMIX_MAG =   1.60;   BMIX_MAG =  1.00
     AMIN     =   0.10
     WC   =   100.;   INIMIX=   1;  MIXPRE=   1;  MAXMIX= -45

 Intra band minimization:
   WEIMIN = 0.0010     energy-eigenvalue tresh-hold
   EBREAK =  0.46E-09  absolut break condition
   DEPER  =   0.30     relativ break condition  

   TIME   =   0.40     timestep for ELM

  volume/ion in A,a.u.               =      14.41        97.26
  Fermi-wavevector in a.u.,A,eV,Ry     =   1.316772  2.488339 23.590996  1.733889
  Thomas-Fermi vector in A             =   2.446861
 
 Write flags
   LWAVE        =      T    write WAVECAR
   LDOWNSAMPLE  =      F    k-point downsampling of WAVECAR
   LCHARG       =      T    write CHGCAR
   LVTOT        =      F    write LOCPOT, total local potential
   LVHAR        =      F    write LOCPOT, Hartree potential only
   LELF         =      F    write electronic localiz. function (ELF)
   LORBIT       =     11    0 simple, 1 ext, 2 COOP (PROOUT), +10 PAW based schemes


 Dipole corrections
   LMONO  =      F    monopole corrections only (constant potential shift)
   LDIPOL =      F    correct potential (dipole corrections)
   IDIPOL =      0    1-x, 2-y, 3-z, 4-all directions 
   EPSILON=  1.0000000 bulk dielectric constant

 LDA+U is selected, type is set to LDAUTYPE =  2
   angular momentum for each species LDAUL =     2   -1   -1
   U (eV)           for each species LDAUU =   4.2  0.0  0.0
   J (eV)           for each species LDAUJ =   0.0  0.0  0.0
 Exchange correlation treatment:
   GGA     =    PS    GGA type
   LEXCH   =    14    internal setting for exchange type
   LIBXC   =     F    Libxc                    
   VOSKOWN =     0    Vosko Wilk Nusair interpolation
   LHFCALC =     F    Hartree Fock is set to
   LHFONE  =     F    Hartree Fock one center treatment
   AEXX    =    0.0000 exact exchange contribution

 Linear response parameters
   LEPSILON=     F    determine dielectric tensor
   LRPA    =     F    only Hartree local field effects (RPA)
   LNABLA  =     F    use nabla operator in PAW spheres
   LVEL    =     F    velocity operator in full k-point grid
   CSHIFT  =0.1000    complex shift for real part using Kramers Kronig
   OMEGAMAX=  -1.0    maximum frequency
   DEG_THRESHOLD= 0.2000000E-02 threshold for treating states as degnerate
   RTIME   =   -0.100 relaxation time in fs
  (WPLASMAI=    0.000 imaginary part of plasma frequency in eV, 0.658/RTIME)
   DFIELD  = 0.0000000 0.0000000 0.0000000 field for delta impulse in time
 
  Optional k-point grid parameters
   LKPOINTS_OPT  =     F    use optional k-point grid
   KPOINTS_OPT_MODE=     1    mode for optional k-point grid
 
 Orbital magnetization related:
   ORBITALMAG=     F  switch on orbital magnetization
   LCHIMAG   =     F  perturbation theory with respect to B field
   DQ        =  0.001000  dq finite difference perturbation B field
   LLRAUG    =     F  two centre corrections for induced B field



--------------------------------------------------------------------------------------------------------


 quasi-Newton-method for relaxation of ions
 charge density and potential will be updated during run
 spin polarized calculation
 Variant of blocked Davidson
 Davidson routine will perform the subspace rotation
 perform sub-space diagonalisation
    after iterative eigenvector-optimisation
 modified Broyden-mixing scheme, WC =      100.0
 initial mixing is a Kerker type mixing with AMIX =  0.4000 and BMIX =      1.0000
 Hartree-type preconditioning will be used
 using additional bands          135
 real space projection scheme for non local part
 use partial core corrections
 calculate Harris-corrections to forces 
   (improved forces if not selfconsistent)
 use gradient corrections 
 use of overlap-Matrix (Vanderbilt PP)
 Gauss-broadening in eV      SIGMA  =   0.01


--------------------------------------------------------------------------------------------------------


  energy-cutoff  :      700.00
  volume of cell :     1556.60
      direct lattice vectors                 reciprocal lattice vectors
    11.599100929 -0.001338515  0.001981173     0.086213582  0.000009731 -0.000014730
    -0.001304722 11.574625896  0.010060135     0.000009983  0.086395947 -0.000075251
     0.001979868  0.010098462 11.594352939    -0.000014740 -0.000074965  0.086248952

  length of vectors
    11.599101176 11.574630341 11.594357506     0.086213584  0.086395981  0.086248986


 
 k-points in units of 2pi/SCALE and weight: Title                                   
   0.00000000  0.00000000  0.00000000       0.037
   0.02873786  0.00000324 -0.00000491       0.074
   0.00000333  0.02879865 -0.00002508       0.074
   0.02874119  0.02880189 -0.00002999       0.074
  -0.02873453  0.02879541 -0.00002017       0.074
  -0.00000491 -0.00002499  0.02874965       0.074
   0.02873295 -0.00002174  0.02874474       0.074
  -0.02874277 -0.00002823  0.02875456       0.074
  -0.00000159  0.02877366  0.02872457       0.074
   0.02873627  0.02877690  0.02871966       0.074
  -0.02873945  0.02877042  0.02872948       0.074
  -0.00000824 -0.02882364  0.02877473       0.074
   0.02872962 -0.02882039  0.02876982       0.074
  -0.02874610 -0.02882688  0.02877964       0.074
 
 k-points in reciprocal lattice and weights: Title                                   
   0.00000000  0.00000000  0.00000000       0.037
   0.33333333  0.00000000 -0.00000000       0.074
   0.00000000  0.33333333 -0.00000000       0.074
   0.33333333  0.33333333  0.00000000       0.074
  -0.33333333  0.33333333  0.00000000       0.074
  -0.00000000  0.00000000  0.33333333       0.074
   0.33333333  0.00000000  0.33333333       0.074
  -0.33333333  0.00000000  0.33333333       0.074
   0.00000000  0.33333333  0.33333333       0.074
   0.33333333  0.33333333  0.33333333       0.074
  -0.33333333  0.33333333  0.33333333       0.074
  -0.00000000 -0.33333333  0.33333333       0.074
   0.33333333 -0.33333333  0.33333333       0.074
  -0.33333333 -0.33333333  0.33333333       0.074
 
 position of ions in fractional coordinates (direct lattice) 
   0.00117685  0.98825592  0.99893523
   0.98969958  0.00891471  0.34331486
   0.99006813  0.99278251  0.65610204
   0.98894012  0.33242991  0.99018010
   0.01271435  0.32305958  0.33289862
   0.98767497  0.33290260  0.67599650
   0.99878976  0.67323439  0.01039354
   0.01145217  0.66570398  0.32552053
   0.00928073  0.67842701  0.66794532
   0.34453963  0.99941764  0.00669427
   0.33389893  0.00107615  0.32025158
   0.33335335  0.00881697  0.66597921
   0.33321355  0.34071957  0.01382714
   0.32386301  0.34349875  0.32480754
   0.33306259  0.32416565  0.66717822
   0.34036934  0.65633499  0.00011490
   0.32657927  0.65580044  0.34198680
   0.32407665  0.66649100  0.65492641
   0.65744164  0.01196368  0.00042518
   0.67765118  0.99044042  0.34253456
   0.67807308  0.99999315  0.65611497
   0.67577163  0.32551514  0.98882297
   0.66598082  0.33347588  0.33284288
   0.67584264  0.34065218  0.67765248
   0.65484771  0.66819609  0.00070920
   0.66625052  0.67989346  0.34285046
   0.66538189  0.65543036  0.65627586
   0.00131706  0.16848503  0.32822416
   0.99860151  0.83432339  0.99190266
   0.99954825  0.83304065  0.67605925
   0.33153055  0.16627085  0.66576670
   0.33352258  0.50091085  0.00484318
   0.34181704  0.49973784  0.32735275
   0.66413867  0.16579307  0.00384552
   0.66489054  0.49951747  0.66338267
   0.66377719  0.83270624  0.32626758
   0.16761870  0.33767578  0.33661269
   0.16584947  0.66425009  0.33765565
   0.16748730  0.66338121  0.66331315
   0.49838285  0.99150943  0.99770469
   0.50116580  0.67536520  0.00234759
   0.83288661  0.00131897  0.32876364
   0.83243428  0.00958186  0.66996314
   0.83394559  0.33703901  0.00524069
   0.83337244  0.32323455  0.66285271
   0.00337887  0.99799989  0.50018163
   0.00285852  0.33129032  0.83331782
   0.99958405  0.66657275  0.16505674
   0.33106748  0.00784289  0.16655669
   0.33676952  0.31971591  0.16637484
   0.34421320  0.66741229  0.50087136
   0.66140687  0.99969469  0.50094629
   0.66405923  0.33381068  0.83373212
   0.65959292  0.66994026  0.49976187
   0.99991394  0.16475323  0.00949866
   0.01670429  0.16742842  0.66394757
   0.00815871  0.50059263  0.99910369
   0.99031296  0.49903211  0.33737374
   0.99555801  0.50018559  0.66253404
   0.99929666  0.83279528  0.33112498
   0.33540586  0.16638771  0.98563034
   0.33299167  0.16513429  0.34812128
   0.34043465  0.49728588  0.67088781
   0.32195962  0.83388898  0.99752474
   0.34023100  0.83580004  0.33208240
   0.33362436  0.83606203  0.66972318
   0.66652372  0.17009860  0.32601669
   0.65147797  0.16677212  0.66705688
   0.66071611  0.50142600  0.00214792
   0.66269525  0.49684957  0.33523853
   0.67940409  0.83292178  0.00427538
   0.66729800  0.83236304  0.67438443
   0.16730332  0.00452904  0.99581528
   0.16974733  0.99523354  0.33511729
   0.16978785  0.99673142  0.66905108
   0.16691992  0.32802201  0.00137665
   0.16955733  0.34187743  0.66093023
   0.16701615  0.66810665  0.99535752
   0.49881429  0.00777502  0.33149380
   0.49706994  0.99585095  0.67404808
   0.49976833  0.33416925  0.99931787
   0.50265862  0.32626484  0.33822250
   0.49772819  0.33225290  0.66308012
   0.50076203  0.66628614  0.31771620
   0.49902666  0.67103323  0.67991830
   0.83442226  0.00208603  0.00190329
   0.82901016  0.33529631  0.33104581
   0.83189260  0.65896131  0.99683473
   0.83268234  0.66348380  0.33408876
   0.83275911  0.66607520  0.66910046
   0.00868216  0.99417300  0.16457343
   0.00326408  0.01372988  0.83517861
   0.00294275  0.34225307  0.16582223
   0.99895504  0.33423363  0.50040013
   0.99067481  0.66921756  0.49958203
   0.99805475  0.65561014  0.83492871
   0.33587825  0.99422486  0.50096454
   0.32881017  0.99706403  0.83218931
   0.33836581  0.33638148  0.50199134
   0.33243483  0.33444689  0.83203203
   0.32774464  0.67837861  0.16529643
   0.33288843  0.66836701  0.83363779
   0.66196365  0.00043669  0.16673981
   0.66619130  0.99798976  0.83428306
   0.65930862  0.33980710  0.16984552
   0.66482872  0.32735497  0.49580245
   0.67446193  0.65893234  0.16569903
   0.66970556  0.66757334  0.83576413
 
 position of ions in cartesian coordinates  (Angst):
   0.01433872 11.44877867 11.59195191
  11.48029341  0.10532671  3.98256405
  11.48390380 11.49638650  7.61902768
  11.47234299  3.85642740 11.48580115
   0.14771258  3.74263858  3.86301930
  11.45704565  3.85872758  7.84304775
  11.58420543  7.79120422  0.12925802
   0.13261083  7.70854640  3.78091963
   0.10808536  7.85927164  7.75123722
   3.99505920 11.56749174  0.08835255
   3.87355999  0.01524318  3.71378217
   3.86790618  0.10833232  7.72234719
   3.86456048  3.94339522  0.16440452
   3.75671467  3.97871612  3.77003053
   3.86412463  3.75838784  7.73942073
   3.94712223  7.59637754  0.00860930
   3.78784739  7.59366116  3.97236006
   3.75942482  7.72056395  7.60079498
   7.62571717  0.13759937  0.00635254
   7.85953041 11.46652932  3.98277303
   7.86503245 11.58026471  7.61863201
   7.83987632  3.77679707 11.46937611
   7.72500268  3.86232833  3.86377211
   7.84006423  3.94886021  7.86170804
   7.59477431  7.73325040  0.01624228
   7.72769879  7.87208295  3.98328900
   7.71827591  7.59209797  7.61700594
   0.01570677  1.95346396  3.80724439
  11.58375503  9.66566118 11.51084131
  11.59411268  9.64762318  7.84883036
   3.84655755  1.93080232  7.72146366
   3.86791816  5.79745822  0.06185350
   3.96476641  5.78712682  3.80114794
   7.70320279  1.91814264  0.04756996
   7.71279411  5.78753697  7.69783526
   7.69877811  9.64066950  3.79255368
   1.94445215  3.91164576  3.90653543
   1.92350657  7.69163416  3.92190985
   1.94314989  7.68486358  7.69769231
   5.78147471 11.48575886 11.57870236
   5.81219617  7.81645241  0.03500593
   9.66138503  0.01747177  3.81346504
   9.65680317  0.11655787  7.76953474
   9.67258974  3.90003708  0.06580521
   9.66726164  3.74689732  7.69025111
   0.03887998 11.55652188  5.80932905
   0.03437384  3.84297289  9.66511939
  11.59373343  7.71565909  1.92241230
   3.84040461  0.09201729  1.93185186
   3.90613597  3.70182145  1.93289220
   3.99268453  7.72964487  5.81467553
   7.67141254 11.57526554  5.81951552
   7.70370519  3.87126428  9.67125830
   7.65080028  7.75847187  5.80246193
  11.59790659  1.90571456  0.11376922
   0.19485083  1.94460378  7.69975993
   0.09595871  5.80425086 11.58901303
  11.48675681  5.77819143  3.91861251
  11.54823700  5.79481911  7.68865776
  11.59051182  9.64130004  3.84953775
   3.89214073  1.93537990 11.43008439
   3.86287776  1.91443744  4.03856196
   3.94941535  5.76221724  7.78418729
   3.73532907  9.66159550 11.57468084
   3.94594066  9.67697091  3.85936289
   3.86997770  9.68342186  7.77407876
   7.73149940  1.97122773  3.78298428
   7.55766182  1.93618913  7.73706130
   7.66306286  5.80295566  0.03125709
   7.68668458  5.75334628  3.89318509
   7.87939833  9.63989176  0.05929555
   7.74030606  9.64020789  7.82874687
   1.94253372  0.06225419 11.54621083
   1.96828143 11.52261289  3.89581665
   1.96941056 11.54332245  7.76757803
   1.93569576  3.79652250  0.01959202
   1.96757510  3.96355072  7.66683366
   1.93833618  7.74291256 11.54757846
   5.78644350  0.09267284  3.84452258
   5.76559963 11.53274368  7.82615455
   5.79840587  3.87730668 11.59079601
   5.83063207  3.77913619  3.92574919
   5.77407885  3.85173288  7.69231356
   5.80814899  7.71455096  3.69140878
   5.78873127  7.77315675  7.89095213
   9.67854904  0.02304730  0.02374153
   9.61599042  3.88316276  3.84327754
   9.65032008  7.63618366 11.56593103
   9.65816228  7.68183603  3.88186738
   9.65971261  7.71521354  7.76613755
   0.09973402 11.50883091  1.91814118
   0.03949598  0.16734791  9.68350018
   0.03401500  3.96312182  1.92605040
  11.58753492  3.87234534  5.80715731
  11.49105308  7.74966184  5.80102545
  11.57733548  7.59553766  9.68903105
   3.89558036 11.51239021  5.81902719
   3.81424912 11.54860681  9.65937865
   3.92529417  3.89810626  5.82431917
   3.85715607  3.87905490  9.65089620
   3.80098528  7.85320915  1.92397905
   3.86198495  7.74407093  9.67287416
   7.67851275  0.00585224  1.93455606
   7.72756984 11.55889134  9.68433201
   7.64728011  3.93397280  1.97397367
   7.71196993  3.79312825  5.75311902
   7.82262029  7.62766581  1.92913822
   7.76876610  7.73445517  9.69818703
 


--------------------------------------------------------------------------------------------------------


 k-point   1 :   0.0000 0.0000 0.0000  plane waves:   65273
 k-point   2 :   0.3333 0.0000-0.0000  plane waves:   65408
 k-point   3 :   0.0000 0.3333-0.0000  plane waves:   65394
 k-point   4 :   0.3333 0.3333 0.0000  plane waves:   65457
 k-point   5 :  -0.3333 0.3333 0.0000  plane waves:   65451
 k-point   6 :  -0.0000 0.0000 0.3333  plane waves:   65425
 k-point   7 :   0.3333 0.0000 0.3333  plane waves:   65469
 k-point   8 :  -0.3333 0.0000 0.3333  plane waves:   65473
 k-point   9 :   0.0000 0.3333 0.3333  plane waves:   65432
 k-point  10 :   0.3333 0.3333 0.3333  plane waves:   65487
 k-point  11 :  -0.3333 0.3333 0.3333  plane waves:   65481
 k-point  12 :  -0.0000-0.3333 0.3333  plane waves:   65463
 k-point  13 :   0.3333-0.3333 0.3333  plane waves:   65489
 k-point  14 :  -0.3333-0.3333 0.3333  plane waves:   65490

 maximum and minimum number of plane-waves per node :      8281     8123

 maximum number of plane-waves:     65490
 maximum index in each direction: 
   IXMAX=   25   IYMAX=   25   IZMAX=   25
   IXMIN=  -25   IYMIN=  -25   IZMIN=  -25


 real space projection operators:
  total allocation   :      54080.14 KBytes
  max/ min on nodes  :       7375.36       6148.44


 parallel 3D FFT for wavefunctions:
    minimum data exchange during FFTs selected (reduces bandwidth)
 parallel 3D FFT for charge:
    minimum data exchange during FFTs selected (reduces bandwidth)


 total amount of memory used by VASP MPI-rank0   297736. kBytes
=======================================================================

   base      :      30000. kBytes
   nonlr-proj:      25337. kBytes
   fftplans  :      18873. kBytes
   grid      :      21088. kBytes
   one-center:        435. kBytes
   wavefun   :     202003. kBytes
 
     INWAV:  cpu time      0.0001: real time      0.0000
 Broyden mixing: mesh for mixing (old mesh)
   NGX = 51   NGY = 49   NGZ = 51
  (NGX  =200   NGY  =200   NGZ  =200)
  gives a total of 127449 points

 initial charge density was supplied:
 charge density of overlapping atoms calculated
 number of electron     810.0000000 magnetization     108.0000000
 keeping initial charge density in first step


--------------------------------------------------------------------------------------------------------


 Maximum index for non-local projection operator         1372
 Maximum index for augmentation-charges         4055 (set IRDMAX)


--------------------------------------------------------------------------------------------------------


 First call to EWALD:  gamma=   0.153
 Maximum number of real-space cells 3x 3x 3
 Maximum number of reciprocal cells 3x 3x 3

    FEWALD:  cpu time      0.0036: real time      0.0037


--------------------------------------- Iteration      1(   1)  ---------------------------------------


    POTLOK:  cpu time      0.1707: real time      0.1916
    SETDIJ:  cpu time      0.8921: real time      0.8942
     EDDAV:  cpu time     90.1828: real time     90.4134
       DOS:  cpu time      0.0105: real time      0.0107
    --------------------------------------------
      LOOP:  cpu time     91.2561: real time     91.5099

 eigenvalue-minimisations  : 30240
 total energy-change (2. order) : 0.1318715E+05  (-0.4644583E+05)
 number of electron     810.0000000 magnetization     108.0000000
 augmentation part      810.0000000 magnetization     108.0000000

 Free energy of the ion-electron system (eV)
  ---------------------------------------------------
  alpha Z        PSCENC =      2562.38390805
  Ewald energy   TEWEN  =    -43294.58089898
  -Hartree energ DENC   =    -27718.03466196
  -exchange      EXHF   =         0.00000000
  -V(xc)+E(xc)   XCENC  =      3762.47304517
  PAW double counting   =     55010.87535266   -55252.78449702
  entropy T*S    EENTRO =        -0.00190083
  eigenvalues    EBANDS =      2846.37473845
  atomic energy  EATOM  =     75270.44210491
  Solvation  Ediel_sol  =         0.00000000
  ---------------------------------------------------
  free energy    TOTEN  =     13187.14719043 eV

  energy without entropy =    13187.14909126  energy(sigma->0) =    13187.14814085


--------------------------------------------------------------------------------------------------------




--------------------------------------- Iteration      1(   2)  ---------------------------------------


     EDDAV:  cpu time     90.2129: real time     90.4734
       DOS:  cpu time      0.0058: real time      0.0058
    --------------------------------------------
      LOOP:  cpu time     90.2187: real time     90.4792

 eigenvalue-minimisations  : 30250
 total energy-change (2. order) :-0.1154037E+05  (-0.1080917E+05)
 number of electron     810.0000000 magnetization     108.0000000
 augmentation part      810.0000000 magnetization     108.0000000

 Free energy of the ion-electron system (eV)
  ---------------------------------------------------
  alpha Z        PSCENC =      2562.38390805
  Ewald energy   TEWEN  =    -43294.58089898
  -Hartree energ DENC   =    -27718.03466196
  -exchange      EXHF   =         0.00000000
  -V(xc)+E(xc)   XCENC  =      3762.47304517
  PAW double counting   =     55010.87535266   -55252.78449702
  entropy T*S    EENTRO =        -0.00103908
  eigenvalues    EBANDS =     -8693.99578714
  atomic energy  EATOM  =     75270.44210491
  Solvation  Ediel_sol  =         0.00000000
  ---------------------------------------------------
  free energy    TOTEN  =      1646.77752660 eV

  energy without entropy =     1646.77856568  energy(sigma->0) =     1646.77804614


--------------------------------------------------------------------------------------------------------




--------------------------------------- Iteration      1(   3)  ---------------------------------------


     EDDAV:  cpu time     95.8412: real time     96.2500
       DOS:  cpu time      0.0060: real time      0.0060
    --------------------------------------------
      LOOP:  cpu time     95.8472: real time     96.2560

 eigenvalue-minimisations  : 32430
 total energy-change (2. order) :-0.2416816E+04  (-0.2268943E+04)
 number of electron     810.0000000 magnetization     108.0000000
 augmentation part      810.0000000 magnetization     108.0000000

 Free energy of the ion-electron system (eV)
  ---------------------------------------------------
  alpha Z        PSCENC =      2562.38390805
  Ewald energy   TEWEN  =    -43294.58089898
  -Hartree energ DENC   =    -27718.03466196
  -exchange      EXHF   =         0.00000000
  -V(xc)+E(xc)   XCENC  =      3762.47304517
  PAW double counting   =     55010.87535266   -55252.78449702
  entropy T*S    EENTRO =        -0.00000000
  eigenvalues    EBANDS =    -11110.81319948
  atomic energy  EATOM  =     75270.44210491
  Solvation  Ediel_sol  =         0.00000000
  ---------------------------------------------------
  free energy    TOTEN  =      -770.03884667 eV

  energy without entropy =     -770.03884667  energy(sigma->0) =     -770.03884667


--------------------------------------------------------------------------------------------------------




--------------------------------------- Iteration      1(   4)  ---------------------------------------


     EDDAV:  cpu time    106.8983: real time    107.2724
       DOS:  cpu time      0.0120: real time      0.0120
    --------------------------------------------
      LOOP:  cpu time    106.9103: real time    107.2844

 eigenvalue-minimisations  : 37410
 total energy-change (2. order) :-0.1536617E+03  (-0.1519907E+03)
 number of electron     810.0000000 magnetization     108.0000000
 augmentation part      810.0000000 magnetization     108.0000000

 Free energy of the ion-electron system (eV)
  ---------------------------------------------------
  alpha Z        PSCENC =      2562.38390805
  Ewald energy   TEWEN  =    -43294.58089898
  -Hartree energ DENC   =    -27718.03466196
  -exchange      EXHF   =         0.00000000
  -V(xc)+E(xc)   XCENC  =      3762.47304517
  PAW double counting   =     55010.87535266   -55252.78449702
  entropy T*S    EENTRO =        -0.00000000
  eigenvalues    EBANDS =    -11264.47489903
  atomic energy  EATOM  =     75270.44210491
  Solvation  Ediel_sol  =         0.00000000
  ---------------------------------------------------
  free energy    TOTEN  =      -923.70054622 eV

  energy without entropy =     -923.70054622  energy(sigma->0) =     -923.70054622


--------------------------------------------------------------------------------------------------------




--------------------------------------- Iteration      1(   5)  ---------------------------------------


     EDDAV:  cpu time    109.3380: real time    109.6561
       DOS:  cpu time      0.0140: real time      0.0140
    CHARGE:  cpu time      3.9582: real time      3.9680
    MIXING:  cpu time      0.0054: real time      0.0055
    --------------------------------------------
      LOOP:  cpu time    113.3155: real time    113.6436

 eigenvalue-minimisations  : 38470
 total energy-change (2. order) :-0.4907574E+01  (-0.4886679E+01)
 number of electron     810.0000010 magnetization      68.7977998
 augmentation part      205.6060593 magnetization      70.5423928

 Broyden mixing:
  rms(total) = 0.10948E+02    rms(broyden)= 0.10948E+02
  rms(prec ) = 0.13038E+02
  weight for this iteration     100.00

 Free energy of the ion-electron system (eV)
  ---------------------------------------------------
  alpha Z        PSCENC =      2562.38390805
  Ewald energy   TEWEN  =    -43294.58089898
  -Hartree energ DENC   =    -27718.03466196
  -exchange      EXHF   =         0.00000000
  -V(xc)+E(xc)   XCENC  =      3762.47304517
  PAW double counting   =     55010.87535266   -55252.78449702
  entropy T*S    EENTRO =        -0.00000000
  eigenvalues    EBANDS =    -11269.38247294
  atomic energy  EATOM  =     75270.44210491
  Solvation  Ediel_sol  =         0.00000000
  ---------------------------------------------------
  free energy    TOTEN  =      -928.60812013 eV

  energy without entropy =     -928.60812013  energy(sigma->0) =     -928.60812013


--------------------------------------------------------------------------------------------------------




--------------------------------------- Iteration      1(   6)  ---------------------------------------


    POTLOK:  cpu time      0.1805: real time      0.3106
    SETDIJ:  cpu time      0.8857: real time      0.8880
     EDDAV:  cpu time    113.0693: real time    113.3543
       DOS:  cpu time      0.0058: real time      0.0058
    CHARGE:  cpu time      3.9036: real time      3.9135
    MIXING:  cpu time      0.0054: real time      0.0054
    --------------------------------------------
      LOOP:  cpu time    118.0503: real time    118.4776

 eigenvalue-minimisations  : 40280
 total energy-change (2. order) : 0.4226220E+03  (-0.1150290E+03)
 number of electron     810.0000011 magnetization      47.0724972
 augmentation part      211.6638242 magnetization      41.6663195

 Broyden mixing:
  rms(total) = 0.32718E+01    rms(broyden)= 0.32712E+01
  rms(prec ) = 0.35676E+01
  weight for this iteration     100.00

 eigenvalues of (default mixing * dielectric matrix)
  average eigenvalue GAMMA=   0.8704
  0.8704

 Free energy of the ion-electron system (eV)
  ---------------------------------------------------
  alpha Z        PSCENC =      2562.38390805
  Ewald energy   TEWEN  =    -43294.58089898
  -Hartree energ DENC   =    -28124.99410925
  -exchange      EXHF   =         0.00000000
  -V(xc)+E(xc)   XCENC  =      3909.45876500
  PAW double counting   =     57653.13234036   -58026.11413868
  entropy T*S    EENTRO =        -0.00000000
  eigenvalues    EBANDS =    -10455.71404168
  atomic energy  EATOM  =     75270.44210491
  Solvation  Ediel_sol  =         0.00000000
  ---------------------------------------------------
  free energy    TOTEN  =      -505.98607026 eV

  energy without entropy =     -505.98607026  energy(sigma->0) =     -505.98607026


--------------------------------------------------------------------------------------------------------




--------------------------------------- Iteration      1(   7)  ---------------------------------------


    POTLOK:  cpu time      0.1599: real time      0.1647
    SETDIJ:  cpu time      0.8923: real time      0.8952
     EDDAV:  cpu time    108.8292: real time    109.1046
       DOS:  cpu time      0.0046: real time      0.0046
    CHARGE:  cpu time      3.9880: real time      3.9981
    MIXING:  cpu time      0.0059: real time      0.0059
    --------------------------------------------
      LOOP:  cpu time    113.8799: real time    114.1731

 eigenvalue-minimisations  : 38330
 total energy-change (2. order) :-0.9524884E+02  (-0.1925799E+02)
 number of electron     810.0000010 magnetization      26.6098452
 augmentation part      207.5541654 magnetization      22.6912250

 Broyden mixing:
  rms(total) = 0.19102E+01    rms(broyden)= 0.19102E+01
  rms(prec ) = 0.21208E+01
  weight for this iteration     100.00

 eigenvalues of (default mixing * dielectric matrix)
  average eigenvalue GAMMA=   0.9736
  1.0879  0.8593

 Free energy of the ion-electron system (eV)
  ---------------------------------------------------
  alpha Z        PSCENC =      2562.38390805
  Ewald energy   TEWEN  =    -43294.58089898
  -Hartree energ DENC   =    -28148.86474641
  -exchange      EXHF   =         0.00000000
  -V(xc)+E(xc)   XCENC  =      3859.88379297
  PAW double counting   =     59236.31309390   -59621.87713379
  entropy T*S    EENTRO =        -0.00000000
  eigenvalues    EBANDS =    -10464.93502727
  atomic energy  EATOM  =     75270.44210491
  Solvation  Ediel_sol  =         0.00000000
  ---------------------------------------------------
  free energy    TOTEN  =      -601.23490662 eV

  energy without entropy =     -601.23490662  energy(sigma->0) =     -601.23490662


--------------------------------------------------------------------------------------------------------




--------------------------------------- Iteration      1(   8)  ---------------------------------------


    POTLOK:  cpu time      0.2160: real time      0.3880
    SETDIJ:  cpu time      0.9114: real time      0.9137
     EDDAV:  cpu time    101.5668: real time    101.8238
       DOS:  cpu time      0.0133: real time      0.0133
    CHARGE:  cpu time      3.8849: real time      3.8948
    MIXING:  cpu time      0.0060: real time      0.0060
    --------------------------------------------
      LOOP:  cpu time    106.5984: real time    107.0397

 eigenvalue-minimisations  : 35120
 total energy-change (2. order) :-0.5525460E+02  (-0.4240492E+01)
 number of electron     810.0000011 magnetization       9.8457764
 augmentation part      209.5710490 magnetization       7.0752395

 Broyden mixing:
  rms(total) = 0.12311E+01    rms(broyden)= 0.12311E+01
  rms(prec ) = 0.13210E+01
  weight for this iteration     100.00

 eigenvalues of (default mixing * dielectric matrix)
  average eigenvalue GAMMA=   1.1738
  1.4158  1.4158  0.6898

 Free energy of the ion-electron system (eV)
  ---------------------------------------------------
  alpha Z        PSCENC =      2562.38390805
  Ewald energy   TEWEN  =    -43294.58089898
  -Hartree energ DENC   =    -27993.58012066
  -exchange      EXHF   =         0.00000000
  -V(xc)+E(xc)   XCENC  =      3823.61051460
  PAW double counting   =     60256.84946489   -60660.66287717
  entropy T*S    EENTRO =        -0.00000000
  eigenvalues    EBANDS =    -10620.95160436
  atomic energy  EATOM  =     75270.44210491
  Solvation  Ediel_sol  =         0.00000000
  ---------------------------------------------------
  free energy    TOTEN  =      -656.48950872 eV

  energy without entropy =     -656.48950872  energy(sigma->0) =     -656.48950872


--------------------------------------------------------------------------------------------------------




--------------------------------------- Iteration      1(   9)  ---------------------------------------


    POTLOK:  cpu time      0.1770: real time      0.3016
    SETDIJ:  cpu time      0.8867: real time      0.8890
     EDDAV:  cpu time    102.2291: real time    102.4868
       DOS:  cpu time      0.0194: real time      0.0195
    CHARGE:  cpu time      4.0483: real time      4.0584
    MIXING:  cpu time      0.0049: real time      0.0049
    --------------------------------------------
      LOOP:  cpu time    107.3654: real time    107.7601

 eigenvalue-minimisations  : 35390
 total energy-change (2. order) :-0.5384684E+02  (-0.7855353E+01)
 number of electron     810.0000011 magnetization       4.6177430
 augmentation part      208.6799935 magnetization       3.6670641

 Broyden mixing:
  rms(total) = 0.48439E+00    rms(broyden)= 0.48428E+00
  rms(prec ) = 0.58544E+00
  weight for this iteration     100.00

 eigenvalues of (default mixing * dielectric matrix)
  average eigenvalue GAMMA=   1.1664
  1.8670  1.4399  0.7609  0.5979

 Free energy of the ion-electron system (eV)
  ---------------------------------------------------
  alpha Z        PSCENC =      2562.38390805
  Ewald energy   TEWEN  =    -43294.58089898
  -Hartree energ DENC   =    -27850.80035011
  -exchange      EXHF   =         0.00000000
  -V(xc)+E(xc)   XCENC  =      3788.46044965
  PAW double counting   =     60922.51968077   -61332.30895339
  entropy T*S    EENTRO =        -0.00000000
  eigenvalues    EBANDS =    -10776.45229211
  atomic energy  EATOM  =     75270.44210491
  Solvation  Ediel_sol  =         0.00000000
  ---------------------------------------------------
  free energy    TOTEN  =      -710.33635120 eV

  energy without entropy =     -710.33635120  energy(sigma->0) =     -710.33635120


--------------------------------------------------------------------------------------------------------




--------------------------------------- Iteration      1(  10)  ---------------------------------------


    POTLOK:  cpu time      0.1846: real time      0.3441
    SETDIJ:  cpu time      0.9075: real time      0.9099
     EDDAV:  cpu time    106.3637: real time    106.6330
       DOS:  cpu time      0.0041: real time      0.0042
    CHARGE:  cpu time      3.8796: real time      3.8892
    MIXING:  cpu time      0.0045: real time      0.0045
    --------------------------------------------
      LOOP:  cpu time    111.3440: real time    111.7849

 eigenvalue-minimisations  : 37290
 total energy-change (2. order) :-0.8565677E+01  (-0.1347433E+01)
 number of electron     810.0000011 magnetization       1.9970952
 augmentation part      209.0988177 magnetization       1.6661401

 Broyden mixing:
  rms(total) = 0.19596E+00    rms(broyden)= 0.19590E+00
  rms(prec ) = 0.22180E+00
  weight for this iteration     100.00

 eigenvalues of (default mixing * dielectric matrix)
  average eigenvalue GAMMA=   1.2177
  2.1742  1.5991  0.9521  0.7693  0.5938

 Free energy of the ion-electron system (eV)
  ---------------------------------------------------
  alpha Z        PSCENC =      2562.38390805
  Ewald energy   TEWEN  =    -43294.58089898
  -Hartree energ DENC   =    -27810.07050060
  -exchange      EXHF   =         0.00000000
  -V(xc)+E(xc)   XCENC  =      3783.57518573
  PAW double counting   =     61027.25923973   -61441.87414097
  entropy T*S    EENTRO =        -0.00000000
  eigenvalues    EBANDS =    -10816.03692617
  atomic energy  EATOM  =     75270.44210491
  Solvation  Ediel_sol  =         0.00000000
  ---------------------------------------------------
  free energy    TOTEN  =      -718.90202831 eV

  energy without entropy =     -718.90202831  energy(sigma->0) =     -718.90202831


--------------------------------------------------------------------------------------------------------




--------------------------------------- Iteration      1(  11)  ---------------------------------------


    POTLOK:  cpu time      0.1707: real time      0.1776
    SETDIJ:  cpu time      0.8917: real time      0.8940
     EDDAV:  cpu time    103.0502: real time    103.3126
       DOS:  cpu time      0.0031: real time      0.0031
    CHARGE:  cpu time      3.9634: real time      3.9733
    MIXING:  cpu time      0.0047: real time      0.0047
    --------------------------------------------
      LOOP:  cpu time    108.0838: real time    108.3653

 eigenvalue-minimisations  : 36030
 total energy-change (2. order) :-0.2126813E+01  (-0.3578885E+00)
 number of electron     810.0000011 magnetization       0.5478206
 augmentation part      209.0736334 magnetization       0.4287016

 Broyden mixing:
  rms(total) = 0.98432E-01    rms(broyden)= 0.98406E-01
  rms(prec ) = 0.12014E+00
  weight for this iteration     100.00

 eigenvalues of (default mixing * dielectric matrix)
  average eigenvalue GAMMA=   1.2430
  2.5522  1.3928  1.3928  0.7939  0.7228  0.6035

 Free energy of the ion-electron system (eV)
  ---------------------------------------------------
  alpha Z        PSCENC =      2562.38390805
  Ewald energy   TEWEN  =    -43294.58089898
  -Hartree energ DENC   =    -27773.86226463
  -exchange      EXHF   =         0.00000000
  -V(xc)+E(xc)   XCENC  =      3781.27038930
  PAW double counting   =     60970.03198211   -61386.18734620
  entropy T*S    EENTRO =        -0.00000000
  eigenvalues    EBANDS =    -10850.52671567
  atomic energy  EATOM  =     75270.44210491
  Solvation  Ediel_sol  =         0.00000000
  ---------------------------------------------------
  free energy    TOTEN  =      -721.02884111 eV

  energy without entropy =     -721.02884111  energy(sigma->0) =     -721.02884111


--------------------------------------------------------------------------------------------------------




--------------------------------------- Iteration      1(  12)  ---------------------------------------


    POTLOK:  cpu time      0.1926: real time      0.3557
    SETDIJ:  cpu time      0.9080: real time      0.9103
     EDDAV:  cpu time     98.2824: real time     98.5521
       DOS:  cpu time      0.0076: real time      0.0120
    CHARGE:  cpu time      3.9090: real time      3.9188
    MIXING:  cpu time      0.0072: real time      0.0076
    --------------------------------------------
      LOOP:  cpu time    103.3069: real time    103.7568

 eigenvalue-minimisations  : 33720
 total energy-change (2. order) :-0.1926171E-01  (-0.2476734E-01)
 number of electron     810.0000011 magnetization       0.2878829
 augmentation part      209.1399905 magnetization       0.2495443

 Broyden mixing:
  rms(total) = 0.46429E-01    rms(broyden)= 0.46422E-01
  rms(prec ) = 0.57494E-01
  weight for this iteration     100.00

 eigenvalues of (default mixing * dielectric matrix)
  average eigenvalue GAMMA=   1.2192
  2.5362  1.5207  1.5207  0.8225  0.8225  0.7378  0.5737

 Free energy of the ion-electron system (eV)
  ---------------------------------------------------
  alpha Z        PSCENC =      2562.38390805
  Ewald energy   TEWEN  =    -43294.58089898
  -Hartree energ DENC   =    -27745.07062732
  -exchange      EXHF   =         0.00000000
  -V(xc)+E(xc)   XCENC  =      3780.18313817
  PAW double counting   =     60893.46850420   -61310.13295700
  entropy T*S    EENTRO =        -0.00000000
  eigenvalues    EBANDS =    -10877.74127484
  atomic energy  EATOM  =     75270.44210491
  Solvation  Ediel_sol  =         0.00000000
  ---------------------------------------------------
  free energy    TOTEN  =      -721.04810281 eV

  energy without entropy =     -721.04810281  energy(sigma->0) =     -721.04810281


--------------------------------------------------------------------------------------------------------




--------------------------------------- Iteration      1(  13)  ---------------------------------------


    POTLOK:  cpu time      0.1700: real time      0.3389
    SETDIJ:  cpu time      0.8983: real time      0.9017
     EDDAV:  cpu time     96.9240: real time     97.1689
       DOS:  cpu time      0.0099: real time      0.0099
    CHARGE:  cpu time      3.9347: real time      3.9445
    MIXING:  cpu time      0.0057: real time      0.0057
    --------------------------------------------
      LOOP:  cpu time    101.9425: real time    102.3694

 eigenvalue-minimisations  : 33510
 total energy-change (2. order) :-0.1025550E-02  (-0.5288119E-02)
 number of electron     810.0000011 magnetization       0.0143972
 augmentation part      209.1170955 magnetization      -0.0051538

 Broyden mixing:
  rms(total) = 0.23244E-01    rms(broyden)= 0.23242E-01
  rms(prec ) = 0.28560E-01
  weight for this iteration     100.00

 eigenvalues of (default mixing * dielectric matrix)
  average eigenvalue GAMMA=   1.2694
  2.6562  2.3725  1.1554  0.9867  0.8750  0.8750  0.5814  0.6526

 Free energy of the ion-electron system (eV)
  ---------------------------------------------------
  alpha Z        PSCENC =      2562.38390805
  Ewald energy   TEWEN  =    -43294.58089898
  -Hartree energ DENC   =    -27735.84776607
  -exchange      EXHF   =         0.00000000
  -V(xc)+E(xc)   XCENC  =      3779.83719629
  PAW double counting   =     60863.36011630   -61279.62199265
  entropy T*S    EENTRO =        -0.00000000
  eigenvalues    EBANDS =    -10887.02179620
  atomic energy  EATOM  =     75270.44210491
  Solvation  Ediel_sol  =         0.00000000
  ---------------------------------------------------
  free energy    TOTEN  =      -721.04912836 eV

  energy without entropy =     -721.04912836  energy(sigma->0) =     -721.04912836


--------------------------------------------------------------------------------------------------------




--------------------------------------- Iteration      1(  14)  ---------------------------------------


    POTLOK:  cpu time      0.2210: real time      0.3733
    SETDIJ:  cpu time      0.9050: real time      0.9073
     EDDAV:  cpu time     97.1665: real time     97.4262
       DOS:  cpu time      0.0098: real time      0.0140
    CHARGE:  cpu time      3.8847: real time      3.9000
    MIXING:  cpu time      0.0060: real time      0.0104
    --------------------------------------------
      LOOP:  cpu time    102.1930: real time    102.6313

 eigenvalue-minimisations  : 33360
 total energy-change (2. order) : 0.5724568E-02  (-0.1439679E-02)
 number of electron     810.0000011 magnetization       0.0043690
 augmentation part      209.1265487 magnetization      -0.0004293

 Broyden mixing:
  rms(total) = 0.78287E-02    rms(broyden)= 0.78270E-02
  rms(prec ) = 0.99290E-02
  weight for this iteration     100.00

[...]
      3.86412      3.75839      7.73942        -0.000507      0.002777     -0.000278
      3.94712      7.59638      0.00861        -0.000608      0.002814     -0.000653
      3.78785      7.59366      3.97236         0.001006     -0.001235     -0.000370
      3.75942      7.72056      7.60079        -0.001620     -0.000511     -0.000502
      7.62572      0.13760      0.00635         0.000980      0.001005      0.000575
      7.85953     11.46653      3.98277         0.002919      0.001539     -0.001776
      7.86503     11.58026      7.61863         0.003152      0.001470      0.000330
      7.83988      3.77680     11.46938         0.002221     -0.000500      0.001505
      7.72500      3.86233      3.86377        -0.001243     -0.000786     -0.000694
      7.84006      3.94886      7.86171         0.001577     -0.001761      0.001470
      7.59477      7.73325      0.01624         0.001353     -0.001805      0.000842
      7.72770      7.87208      3.98329        -0.001048     -0.001591     -0.001764
      7.71828      7.59210      7.61701         0.000105     -0.001812     -0.001812
      0.01571      1.95346      3.80724         0.006175      0.005057     -0.000614
     11.58376      9.66566     11.51084        -0.000783     -0.000848     -0.002591
     11.59411      9.64762      7.84883        -0.000368      0.002176      0.001512
      3.84656      1.93080      7.72146        -0.000226     -0.000100     -0.002146
      3.86792      5.79746      0.06185        -0.001116     -0.002398      0.004492
      3.96477      5.78713      3.80115         0.004262      0.001785     -0.006697
      7.70320      1.91814      0.04757        -0.000601     -0.001798     -0.000313
      7.71279      5.78754      7.69784         0.001474      0.002019     -0.004294
      7.69878      9.64067      3.79255         0.000938      0.001422     -0.002600
      1.94445      3.91165      3.90654        -0.005904      0.006724      0.002009
      1.92351      7.69163      3.92191        -0.002373     -0.001919      0.001693
      1.94315      7.68486      7.69769         0.001384      0.001582     -0.002065
      5.78147     11.48576     11.57870        -0.002764     -0.002301     -0.000306
      5.81220      7.81645      0.03501        -0.003147      0.002174      0.001246
      9.66139      0.01747      3.81347         0.000744      0.001577     -0.000820
      9.65680      0.11656      7.76953         0.001907      0.003423      0.000123
      9.67259      3.90004      0.06581        -0.001600      0.000667      0.002994
      9.66726      3.74690      7.69025        -0.000238     -0.004315     -0.000312
      0.03888     11.55652      5.80933         0.001464     -0.000604      0.001694
      0.03437      3.84297      9.66512        -0.003076     -0.001335     -0.001686
     11.59373      7.71566      1.92241         0.000659      0.000179      0.003170
      3.84040      0.09202      1.93185         0.000913      0.001705      0.002289
      3.90614      3.70182      1.93289        -0.001225     -0.005631     -0.003557
      3.99268      7.72964      5.81468         0.002164     -0.002191     -0.001246
      7.67141     11.57527      5.81952         0.002403     -0.000211      0.000902
      7.70371      3.87126      9.67126         0.000619      0.002564     -0.001411
      7.65080      7.75847      5.80246        -0.003378      0.003467      0.003250
     11.59791      1.90571      0.11377        -0.000768     -0.000637      0.002569
      0.19485      1.94460      7.69976         0.005300     -0.001002     -0.000437
      0.09596      5.80425     11.58901        -0.000776      0.001502      0.000098
     11.48676      5.77819      3.91861        -0.001318     -0.000244     -0.000541
     11.54824      5.79482      7.68866        -0.001967     -0.000713      0.000528
     11.59051      9.64130      3.84954        -0.000746     -0.001901      0.000891
      3.89214      1.93538     11.43008         0.001834      0.000048     -0.001280
      3.86288      1.91444      4.03856        -0.007649     -0.000243      0.003265
      3.94942      5.76222      7.78419        -0.001953      0.000892      0.001310
      3.73533      9.66160     11.57468        -0.000517      0.000395     -0.002356
      3.94594      9.67697      3.85936         0.001893      0.000426      0.001309
      3.86998      9.68342      7.77408         0.003375      0.000277      0.000395
      7.73150      1.97123      3.78298         0.002833     -0.001131     -0.003808
      7.55766      1.93619      7.73706        -0.001274     -0.000830      0.002290
      7.66306      5.80296      0.03126        -0.004266      0.000141     -0.002185
      7.68668      5.75335      3.89319        -0.001279     -0.000532      0.007469
      7.87940      9.63989      0.05930         0.001447     -0.001051     -0.001037
      7.74031      9.64021      7.82875         0.002857      0.000374     -0.001430
      1.94253      0.06225     11.54621         0.000965     -0.000023      0.001185
      1.96828     11.52261      3.89582         0.001204     -0.004877      0.000964
      1.96941     11.54332      7.76758         0.002659     -0.002011     -0.000877
      1.93570      3.79652      0.01959         0.000922      0.000537      0.000297
      1.96758      3.96355      7.66683        -0.000599      0.001722     -0.000615
      1.93834      7.74291     11.54758        -0.000146     -0.000563     -0.001180
      5.78644      0.09267      3.84452        -0.000212      0.004006      0.000757
      5.76560     11.53274      7.82615         0.001959      0.000882      0.000734
      5.79841      3.87731     11.59080        -0.002957     -0.000827     -0.001583
      5.83063      3.77914      3.92575        -0.001187     -0.003292      0.002696
      5.77408      3.85173      7.69231        -0.001342      0.002003      0.002609
      5.80815      7.71455      3.69141        -0.001243      0.001783     -0.002794
      5.78873      7.77316      7.89095         0.000171     -0.001040     -0.000502
      9.67855      0.02305      0.02374         0.001062      0.001073      0.002357
      9.61599      3.88316      3.84328         0.000950     -0.001674     -0.003502
      9.65032      7.63618     11.56593         0.000090     -0.001480     -0.000085
      9.65816      7.68184      3.88187        -0.000481      0.000809     -0.000031
      9.65971      7.71521      7.76614        -0.001257      0.001090     -0.000862
      0.09973     11.50883      1.91814         0.001967     -0.002922      0.000613
      0.03950      0.16735      9.68350         0.000042      0.002130      0.000759
      0.03401      3.96312      1.92605         0.002082     -0.000504      0.003058
     11.58753      3.87235      5.80716        -0.002467     -0.001916     -0.001665
     11.49105      7.74966      5.80103        -0.001422      0.000434     -0.001305
     11.57734      7.59554      9.68903         0.000010      0.000143     -0.000875
      3.89558     11.51239      5.81903         0.004117     -0.000736      0.000262
      3.81425     11.54861      9.65938         0.002168      0.001539     -0.000735
      3.92529      3.89811      5.82432        -0.001439      0.005677     -0.000035
      3.85716      3.87905      9.65090        -0.003876      0.000716      0.000412
      3.80099      7.85321      1.92398        -0.004436      0.003271      0.000108
      3.86198      7.74407      9.67287        -0.000717     -0.003083      0.000368
      7.67851      0.00585      1.93456         0.000006     -0.001248     -0.000030
      7.72757     11.55889      9.68433         0.002863      0.000159     -0.000634
      7.64728      3.93397      1.97397        -0.003859      0.003758      0.001229
      7.71197      3.79313      5.75312         0.002448     -0.006361      0.000879
      7.82262      7.62767      1.92914        -0.000343     -0.002620     -0.000087
      7.76877      7.73446      9.69819        -0.002193     -0.002458     -0.001063
 -----------------------------------------------------------------------------------
    total drift:                                0.001943      0.000722     -0.003781


--------------------------------------------------------------------------------------------------------



  FREE ENERGIE OF THE ION-ELECTRON SYSTEM (eV)
  ---------------------------------------------------
  free  energy   TOTEN  =      -721.04391529 eV

  energy  without entropy=     -721.04391529  energy(sigma->0) =     -721.04391529
 


--------------------------------------------------------------------------------------------------------


    POTLOK:  cpu time      1.0753: real time      1.0788


--------------------------------------------------------------------------------------------------------


 Quasi-Newton relaxation of ions (Broydens 2nd method)
  g(Force)  = 0.733E-04   g(Stress)= 0.102E-03

 Reset! Starting new Quasi-Newton update for ions 


--------------------------------------------------------------------------------------------------------


  
 reached required accuracy - stopping structural energy minimisation
 writing wavefunctions
     LOOP+:  cpu time   2181.0944: real time   2188.8564
    4ORBIT:  cpu time      0.0000: real time      0.0000



 total charge

# of ion       s       p       d       tot
------------------------------------------
    1        0.314   6.462   1.738   8.515
    2        0.329   6.457   1.821   8.607
    3        0.328   6.455   1.817   8.600
    4        0.320   6.456   1.782   8.557
    5        0.324   6.457   1.821   8.601
    6        0.321   6.454   1.788   8.564
    7        0.318   6.459   1.759   8.536
    8        0.319   6.455   1.765   8.539
    9        0.318   6.451   1.776   8.544
   10        0.321   6.461   1.777   8.559
   11        0.318   6.464   1.750   8.531
   12        0.317   6.474   1.714   8.505
   13        0.321   6.455   1.788   8.564
   14        0.332   6.461   1.839   8.632
   15        0.316   6.472   1.709   8.498
   16        0.319   6.458   1.755   8.532
   17        0.326   6.454   1.796   8.576
   18        0.317   6.451   1.792   8.560
   19        0.322   6.459   1.790   8.572
   20        0.332   6.462   1.838   8.632
   21        0.322   6.453   1.807   8.581
   22        0.331   6.462   1.828   8.621
   23        0.317   6.490   1.681   8.488
   24        0.331   6.460   1.828   8.619
   25        0.315   6.463   1.741   8.519
   26        0.325   6.458   1.823   8.606
   27        0.320   6.454   1.784   8.558
   28        1.569   3.475   0.000   5.044
   29        1.570   3.468   0.000   5.038
   30        1.569   3.471   0.000   5.040
   31        1.571   3.470   0.000   5.040
   32        1.569   3.471   0.000   5.040
   33        1.569   3.477   0.000   5.047
   34        1.570   3.476   0.000   5.046
   35        1.569   3.474   0.000   5.043
   36        1.571   3.483   0.000   5.054
   37        1.570   3.484   0.000   5.054
   38        1.569   3.469   0.000   5.038
   39        1.568   3.471   0.000   5.039
   40        1.570   3.473   0.000   5.043
   41        1.570   3.467   0.000   5.037
   42        1.569   3.479   0.000   5.048
   43        1.569   3.476   0.000   5.045
   44        1.569   3.474   0.000   5.043
   45        1.569   3.476   0.000   5.045
   46        1.569   3.477   0.000   5.046
   47        1.569   3.473   0.000   5.042
   48        1.570   3.469   0.000   5.039
   49        1.570   3.472   0.000   5.043
   50        1.570   3.474   0.000   5.044
   51        1.569   3.471   0.000   5.040
   52        1.568   3.475   0.000   5.044
   53        1.570   3.483   0.000   5.054
   54        1.569   3.476   0.000   5.045
   55        1.729   4.379   0.000   6.108
   56        1.729   4.379   0.000   6.108
   57        1.730   4.383   0.000   6.112
   58        1.729   4.379   0.000   6.109
   59        1.729   4.377   0.000   6.107
   60        1.729   4.381   0.000   6.110
   61        1.729   4.379   0.000   6.108
   62        1.730   4.376   0.000   6.106
   63        1.729   4.381   0.000   6.110
   64        1.730   4.378   0.000   6.108
   65        1.730   4.375   0.000   6.105
   66        1.729   4.382   0.000   6.112
   67        1.732   4.376   0.000   6.107
   68        1.729   4.380   0.000   6.110
   69        1.730   4.381   0.000   6.111
   70        1.732   4.372   0.000   6.104
   71        1.730   4.375   0.000   6.105
   72        1.729   4.378   0.000   6.107
   73        1.730   4.379   0.000   6.109
   74        1.730   4.375   0.000   6.106
   75        1.731   4.376   0.000   6.107
   76        1.729   4.378   0.000   6.107
   77        1.731   4.371   0.000   6.102
   78        1.729   4.381   0.000   6.111
   79        1.730   4.377   0.000   6.107
   80        1.731   4.373   0.000   6.104
   81        1.730   4.381   0.000   6.111
   82        1.732   4.376   0.000   6.108
   83        1.731   4.378   0.000   6.109
   84        1.730   4.380   0.000   6.110
   85        1.729   4.378   0.000   6.107
   86        1.729   4.378   0.000   6.107
   87        1.731   4.370   0.000   6.101
   88        1.729   4.378   0.000   6.107
   89        1.729   4.377   0.000   6.107
   90        1.729   4.379   0.000   6.108
   91        1.730   4.375   0.000   6.105
   92        1.730   4.374   0.000   6.105
   93        1.729   4.380   0.000   6.109
   94        1.729   4.381   0.000   6.110
   95        1.729   4.379   0.000   6.107
   96        1.729   4.378   0.000   6.108
   97        1.730   4.374   0.000   6.104
   98        1.730   4.382   0.000   6.112
   99        1.730   4.379   0.000   6.109
  100        1.730   4.373   0.000   6.103
  101        1.730   4.377   0.000   6.107
  102        1.730   4.377   0.000   6.106
  103        1.730   4.382   0.000   6.112
  104        1.730   4.379   0.000   6.108
  105        1.732   4.372   0.000   6.104
  106        1.732   4.372   0.000   6.104
  107        1.730   4.378   0.000   6.108
  108        1.730   4.376   0.000   6.106
--------------------------------------------------
tot        144.489 504.606  48.107 697.202



 magnetization (x)

# of ion       s       p       d       tot
------------------------------------------
    1       -0.000  -0.000   0.000   0.000
    2       -0.000  -0.000  -0.000  -0.000
    3       -0.000  -0.000  -0.000  -0.000
    4       -0.000  -0.000  -0.000  -0.000
    5       -0.000  -0.000   0.000  -0.000
    6       -0.000  -0.000   0.000   0.000
    7       -0.000   0.000  -0.000  -0.000
    8       -0.000   0.000  -0.000  -0.000
    9       -0.000   0.000  -0.000  -0.000
   10       -0.000  -0.000   0.000  -0.000
   11       -0.000  -0.000   0.000   0.000
   12       -0.000  -0.000   0.000   0.000
   13       -0.000  -0.000  -0.000  -0.000
   14       -0.000  -0.000   0.000   0.000
   15       -0.000  -0.000   0.000   0.000
   16       -0.000  -0.000  -0.000  -0.000
   17       -0.000  -0.000  -0.000  -0.000
   18       -0.000  -0.000   0.000  -0.000
   19       -0.000  -0.000   0.000   0.000
   20       -0.000  -0.000   0.000   0.000
   21       -0.000  -0.000  -0.000  -0.000
   22       -0.000  -0.000   0.000   0.000
   23       -0.000  -0.000   0.000   0.000
   24       -0.000  -0.000  -0.000  -0.000
   25       -0.000  -0.000   0.000  -0.000
   26       -0.000  -0.000   0.000   0.000
   27       -0.000   0.000  -0.000  -0.000
   28        0.000  -0.000   0.000  -0.000
   29        0.000  -0.000   0.000  -0.000
   30        0.000   0.000   0.000   0.000
   31        0.000  -0.000   0.000  -0.000
   32        0.000  -0.000   0.000  -0.000
   33        0.000  -0.000   0.000   0.000
   34        0.000  -0.000   0.000  -0.000
   35        0.000   0.000   0.000   0.000
   36        0.000  -0.000   0.000  -0.000
   37        0.000   0.000   0.000   0.000
   38        0.000   0.000   0.000   0.000
   39       -0.000   0.000   0.000   0.000
   40        0.000  -0.000   0.000  -0.000
   41        0.000  -0.000   0.000  -0.000
   42        0.000   0.000   0.000   0.000
   43        0.000   0.000   0.000   0.000
   44        0.000  -0.000   0.000  -0.000
   45        0.000  -0.000   0.000  -0.000
   46        0.000   0.000   0.000   0.000
   47        0.000   0.000   0.000   0.000
   48        0.000  -0.000   0.000  -0.000
   49        0.000  -0.000   0.000  -0.000
   50        0.000  -0.000   0.000  -0.000
   51        0.000  -0.000   0.000  -0.000
   52        0.000  -0.000   0.000   0.000
   53        0.000  -0.000   0.000   0.000
   54        0.000  -0.000   0.000   0.000
   55        0.000  -0.000   0.000  -0.000
   56        0.000   0.000   0.000   0.000
   57        0.000   0.000   0.000   0.000
   58        0.000   0.000   0.000   0.000
   59        0.000   0.000   0.000   0.000
   60        0.000   0.000   0.000   0.000
   61        0.000   0.000   0.000   0.000
   62        0.000   0.000   0.000   0.000
   63        0.000   0.000   0.000   0.000
   64        0.000   0.000   0.000   0.000
   65        0.000  -0.000   0.000   0.000
   66        0.000   0.000   0.000   0.000
   67        0.000   0.000   0.000   0.000
   68        0.000   0.000   0.000   0.000
   69        0.000   0.000   0.000   0.000
   70        0.000  -0.000   0.000  -0.000
   71        0.000  -0.000   0.000   0.000
   72        0.000   0.000   0.000   0.000
   73        0.000   0.000   0.000   0.000
   74        0.000  -0.000   0.000  -0.000
   75        0.000   0.000   0.000   0.000
   76        0.000   0.000   0.000   0.000
   77        0.000  -0.000   0.000  -0.000
   78        0.000   0.000   0.000   0.000
   79        0.000   0.000   0.000   0.000
   80        0.000  -0.000   0.000  -0.000
   81        0.000   0.000   0.000   0.000
   82        0.000   0.000   0.000   0.000
   83        0.000   0.000   0.000   0.000
   84        0.000   0.000   0.000   0.000
   85        0.000   0.000   0.000   0.000
   86        0.000  -0.000   0.000  -0.000
   87        0.000  -0.000   0.000  -0.000
   88        0.000  -0.000   0.000   0.000
   89        0.000   0.000   0.000   0.000
   90        0.000   0.000   0.000   0.000
   91        0.000  -0.000   0.000   0.000
   92        0.000   0.000   0.000   0.000
   93        0.000   0.000   0.000   0.000
   94        0.000   0.000   0.000   0.000
   95        0.000  -0.000   0.000   0.000
   96        0.000   0.000   0.000   0.000
   97        0.000  -0.000   0.000  -0.000
   98        0.000   0.000   0.000   0.000
   99        0.000   0.000   0.000   0.000
  100        0.000   0.000   0.000   0.000
  101        0.000   0.000   0.000   0.000
  102        0.000   0.000   0.000   0.000
  103        0.000   0.000   0.000   0.000
  104        0.000   0.000   0.000   0.000
  105        0.000   0.000   0.000   0.000
  106        0.000  -0.000   0.000   0.000
  107        0.000  -0.000   0.000   0.000
  108        0.000  -0.000   0.000  -0.000
--------------------------------------------------
tot          0.000   0.000  -0.000   0.000
 

 total amount of memory used by VASP MPI-rank0   297736. kBytes
=======================================================================

   base      :      30000. kBytes
   nonlr-proj:      25337. kBytes
   fftplans  :      18873. kBytes
   grid      :      21088. kBytes
   one-center:        435. kBytes
   wavefun   :     202003. kBytes
 
  
  
 General timing and accounting informations for this job:
 ========================================================
  
                  Total CPU time used (sec):     2285.134
                            User time (sec):     2257.789
                          System time (sec):       27.345
                         Elapsed time (sec):     2294.098
  
                   Maximum memory used (kb):      895360.
                   Average memory used (kb):          N/A
  
                          Minor page faults:       198851
                          Major page faults:           10
                 Voluntary context switches:        15511
