LTO                                     
           1
     7.761505    0.000007    0.000001
     0.000007    7.659259    0.004433
     0.000001    0.004344    7.758342
   Ti   O    F 
   8   8  16
Direct configuration=     1
   0.00035964  0.98739128  0.98646568
   0.00035957  0.01260853  0.51353425
   0.98719907  0.51271919  0.00042213
   0.98719910  0.48728065  0.49957785
   0.49964042  0.01260867  0.01353430
   0.49964047  0.98739151  0.48646574
   0.51280096  0.48728076  0.99957788
   0.51280090  0.51271939  0.50042217
   0.75000000  0.49999998  0.00000001
   0.74999998  0.50000007  0.50000000
   0.00128325  0.25000044  0.49806106
   0.00128350  0.74999973  0.00193895
   0.49871661  0.25000022  0.99806105
   0.49871667  0.74999959  0.50193896
   0.99945931  0.00000004  0.75000007
   0.50054073  0.99999998  0.24999992
   0.25000003  0.00000003  0.99999995
   0.25000002  0.00000008  0.50000003
   0.24999998  0.49999986  1.00000000
   0.24999998  0.50000005  0.50000001
   0.75000003  0.99999988  0.00000002
   0.75000002  0.00000003  0.49999998
   0.00400686  0.24988422  0.00460681
   0.00400678  0.75011589  0.49539314
   0.49599320  0.24988417  0.50460682
   0.49599300  0.75011571  0.99539318
   0.99937042  0.00000006  0.24999994
   0.00845601  0.49999991  0.25000000
   0.00818147  0.49999989  0.74999999
   0.50062970  1.00000000  0.75000005
   0.49181842  0.50000013  0.25000002
   0.49154392  0.50000004  0.75000001
