LTO                                     
           1
     7.883698   -0.000000    0.000000
     0.000000    7.778252    0.000000
     0.000000    0.000000    7.505097
   Ti   O    F 
   8   8  16
Direct configuration=     1
   0.00000000  0.00021282  0.00030497
   1.00000000  0.00021276  0.49969173
   0.00000000  0.49978726  0.00030634
   1.00000000  0.49978724  0.49969310
   0.50000000  0.98703066  0.98970897
   0.50000000  0.98703065  0.51029125
   0.50000000  0.51296930  0.98970893
   0.50000000  0.51296931  0.51029123
   0.50000000  0.75000003  0.00547669
   0.50000000  0.74999993  0.49452319
   1.00000000  0.99969788  0.25000039
   1.00000000  0.99952610  0.75000046
   0.00000000  0.50030220  0.25000018
   0.00000000  0.50047398  0.75000023
   0.50000000  0.00875697  0.75000055
   0.50000000  0.49124297  0.75000042
   0.25061384  0.00177661  0.00378540
   0.25061379  0.00177645  0.49621472
   0.25061384  0.49822343  0.00378534
   0.25061379  0.49822346  0.49621467
   0.74938616  0.00177662  0.00378543
   0.74938621  0.00177645  0.49621474
   0.74938616  0.49822342  0.00378536
   0.74938621  0.49822347  0.49621470
   0.00000002  0.25000004  0.99973608
   0.99999998  0.25000000  0.50026455
   0.00000001  0.75000004  0.99987753
   0.99999999  0.75000000  0.50012311
   0.49999998  0.24999999  0.00806838
   0.50000002  0.24999998  0.49193152
   0.50000000  0.01100885  0.24999991
   0.50000000  0.48899111  0.24999992
