 vasp.6.3.0 20Jan22 (build Jan 25 2022 13:20:17) complex                        
  
 executed on             LinuxIFC date 2024.06.05  15:58:40
 running on   80 total cores
 distrk:  each k-point on   80 cores,    1 groups
 distr:  one band on NCORE=   8 cores,   10 groups


--------------------------------------------------------------------------------------------------------


 INCAR:
   SYSTEM = LTO
   ISTART = 1
   ENCUT = 700.0
   IALGO = 38
   EDIFF = 1E-6
   PREC = Accurate
   ISPIN = 2
   LMAXMIX = 4
   ADDGRID = .TRUE.
   LASPH = .TRUE.
   LREAL = Auto
   ROPT = 1E-4 1E-4 1E-4
   GGA = PS
   LDAU = .TRUE.
   LDAUTYPE = 2
   LDAUL = 2   -1    -1
   LDAUU = 4.2  0.0  0.0
   LDAUJ = 0.0  0.0  0.0
   NSW = 100
   EDIFFG = -0.01
   IBRION = 1
   ISIF = 3
   ISMEAR = 0
   SIGMA = 0.01
   ISYM = 0
   LORBIT = 11
   NEDOS = 3001
   NWRITE = 2
   NCORE = 8

 POTCAR:   PAW_PBE Ti_pv 07Sep2000                
 POTCAR:   PAW_PBE O 08Apr2002                    
 POTCAR:    PAW_PBE F 08Apr2002                   
 -----------------------------------------------------------------------------
|                                                                             |
|           W    W    AA    RRRRR   N    N  II  N    N   GGGG   !!!           |
|           W    W   A  A   R    R  NN   N  II  NN   N  G    G  !!!           |
|           W    W  A    A  R    R  N N  N  II  N N  N  G       !!!           |
|           W WW W  AAAAAA  RRRRR   N  N N  II  N  N N  G  GGG   !            |
|           WW  WW  A    A  R   R   N   NN  II  N   NN  G    G                |
|           W    W  A    A  R    R  N    N  II  N    N   GGGG   !!!           |
|                                                                             |
|     You use a magnetic or noncollinear calculation, but did not specify     |
|     the initial magnetic moment with the MAGMOM tag. Note that a            |
|     default of 1 will be used for all atoms. This ferromagnetic setup       |
|     may break the symmetry of the crystal, in particular it may rule        |
|     out finding an antiferromagnetic solution. Thence, we recommend         |
|     setting the initial magnetic moment manually or verifying carefully     |
|     that this magnetic setup is desired.                                    |
|                                                                             |
 -----------------------------------------------------------------------------

 POTCAR:   PAW_PBE Ti_pv 07Sep2000                
   VRHFIN =Ti: d3 s1                                                                                
   LEXCH  = PE                                                                                      
   EATOM  =  1042.3781 eV,   76.6126 Ry                                                             
                                                                                                    
   TITEL  = PAW_PBE Ti_pv 07Sep2000                                                                 
   LULTRA =        F    use ultrasoft PP ?                                                          
   IUNSCR =        1    unscreen: 0-lin 1-nonlin 2-no                                               
   RPACOR =    2.200    partial core radius                                                         
   POMASS =   47.880; ZVAL   =   10.000    mass and valenz                                          
   RCORE  =    2.500    outmost cutoff radius                                                       
   RWIGS  =    2.500; RWIGS  =    1.323    wigner-seitz radius (au A)                               
   ENMAX  =  222.338; ENMIN  =  166.753 eV                                                          
   RCLOC  =    1.701    cutoff for local pot                                                        
   LCOR   =        T    correct aug charges                                                         
   LPAW   =        T    paw PP                                                                      
   EAUG   =  482.848                                                                                
   DEXC   =    -.008                                                                                
   RMAX   =    3.092    core radius for proj-oper                                                   
   RAUG   =    1.300    factor for augmentation sphere                                              
   RDEP   =    2.538    radius for radial grids                                                     
   QCUT   =   -4.042; QGAM   =    8.085    optimization parameters                                  
                                                                                                    
   Description                                                                                      
     l     E      TYP  RCUT    TYP  RCUT                                                            
     1   .000     23  2.300                                                                         
     1  -.100     23  2.300                                                                         
     2   .000     23  2.500                                                                         
     2   .000     23  2.500                                                                         
     0   .000     23  2.500                                                                         
     0  1.500     23  2.500                                                                         
     3   .000      7   .000                                                                         
  local pseudopotential read in
  partial core-charges read in
  atomic valenz-charges read in
  non local Contribution for L=           1  read in
    real space projection operators read in
  non local Contribution for L=           1  read in
    real space projection operators read in
  non local Contribution for L=           2  read in
    real space projection operators read in
  non local Contribution for L=           2  read in
    real space projection operators read in
  non local Contribution for L=           0  read in
    real space projection operators read in
  non local Contribution for L=           0  read in
    real space projection operators read in
    PAW grid and wavefunctions read in
 
   number of l-projection  operators is LMAX  =           6
   number of lm-projection operators is LMMAX =          18
 
 POTCAR:   PAW_PBE O 08Apr2002                    
   VRHFIN =O: s2p4                                                                                  
   LEXCH  = PE                                                                                      
   EATOM  =   432.3788 eV,   31.7789 Ry                                                             
                                                                                                    
   TITEL  = PAW_PBE O 08Apr2002                                                                     
   LULTRA =        F    use ultrasoft PP ?                                                          
   IUNSCR =        0    unscreen: 0-lin 1-nonlin 2-no                                               
   RPACOR =     .000    partial core radius                                                         
   POMASS =   16.000; ZVAL   =    6.000    mass and valenz                                          
   RCORE  =    1.520    outmost cutoff radius                                                       
   RWIGS  =    1.550; RWIGS  =     .820    wigner-seitz radius (au A)                               
   ENMAX  =  400.000; ENMIN  =  300.000 eV                                                          
   ICORE  =        2    local potential                                                             
   LCOR   =        T    correct aug charges                                                         
   LPAW   =        T    paw PP                                                                      
   EAUG   =  605.392                                                                                
   DEXC   =     .000                                                                                
   RMAX   =    2.264    core radius for proj-oper                                                   
   RAUG   =    1.300    factor for augmentation sphere                                              
   RDEP   =    1.550    radius for radial grids                                                     
   QCUT   =   -5.520; QGAM   =   11.041    optimization parameters                                  
                                                                                                    
   Description                                                                                      
     l     E      TYP  RCUT    TYP  RCUT                                                            
     0   .000     23  1.200                                                                         
     0  -.700     23  1.200                                                                         
     1   .000     23  1.520                                                                         
     1   .600     23  1.520                                                                         
     2   .000      7  1.500                                                                         
  local pseudopotential read in
  atomic valenz-charges read in
  non local Contribution for L=           0  read in
    real space projection operators read in
  non local Contribution for L=           0  read in
    real space projection operators read in
  non local Contribution for L=           1  read in
    real space projection operators read in
  non local Contribution for L=           1  read in
    real space projection operators read in
    PAW grid and wavefunctions read in
 
   number of l-projection  operators is LMAX  =           4
   number of lm-projection operators is LMMAX =           8
 
 POTCAR:    PAW_PBE F 08Apr2002                   
   VRHFIN =F: s2p5                                                                                  
   LEXCH  = PE                                                                                      
   EATOM  =   659.6475 eV,   48.4827 Ry                                                             
                                                                                                    
   TITEL  = PAW_PBE F 08Apr2002                                                                     
   LULTRA =        F    use ultrasoft PP ?                                                          
   IUNSCR =        1    unscreen: 0-lin 1-nonlin 2-no                                               
   RPACOR =    1.200    partial core radius                                                         
   POMASS =   18.998; ZVAL   =    7.000    mass and valenz                                          
   RCORE  =    1.520    outmost cutoff radius                                                       
   RWIGS  =    1.500; RWIGS  =    0.794    wigner-seitz radius (au A)                               
   ENMAX  =  400.000; ENMIN  =  300.000 eV                                                          
   ICORE  =        2    local potential                                                             
   LCOR   =        T    correct aug charges                                                         
   LPAW   =        T    paw PP                                                                      
   EAUG   =  613.614                                                                                
   RMAX   =    1.555    core radius for proj-oper                                                   
   RAUG   =    1.300    factor for augmentation sphere                                              
   RDEP   =    1.539    radius for radial grids                                                     
   RDEPT  =    1.299    core radius for aug-charge                                                  
                                                                                                    
   Atomic configuration                                                                             
    4 entries                                                                                       
     n  l   j            E        occ.                                                              
     1  0  0.50      -663.3661   2.0000                                                             
     2  0  0.50       -29.8995   2.0000                                                             
     2  1  0.50       -11.1114   5.0000                                                             
     3  2  1.50       -10.8847   0.0000                                                             
   Description                                                                                      
     l       E           TYP  RCUT    TYP  RCUT                                                     
     0    -29.8995018     23  1.200                                                                 
     0     -9.5240782     23  1.200                                                                 
     1    -11.1113914     23  1.520                                                                 
     1      1.3605826     23  1.520                                                                 
     2    -10.8846608      7  1.500                                                                 
  local pseudopotential read in
  partial core-charges read in
  partial kinetic energy density read in
  atomic valenz-charges read in
  non local Contribution for L=           0  read in
    real space projection operators read in
  non local Contribution for L=           0  read in
    real space projection operators read in
  non local Contribution for L=           1  read in
    real space projection operators read in
  non local Contribution for L=           1  read in
    real space projection operators read in
    PAW grid and wavefunctions read in
 
   number of l-projection  operators is LMAX  =           4
   number of lm-projection operators is LMMAX =           8
 
 Optimization of the real space projectors (new method)

 maximal supplied QI-value         = 15.12
 optimisation between [QCUT,QGAM] = [ 13.45, 27.06] = [ 50.69,205.06] Ry 
 Optimized for a Real-space Cutoff    1.49 Angstroem

   l    n(q)    QCUT    max X(q) W(low)/X(q) W(high)/X(q)  e(spline) 
   1     12    13.455     4.841    0.13E-05    0.83E-06    0.56E-07
   1     12    13.455     5.701    0.32E-04    0.25E-04    0.17E-06
   2     11    13.455     4.569    0.64E-05    0.34E-05    0.50E-07
   2     11    13.455    32.276    0.49E-04    0.38E-04    0.46E-06
   0     12    13.455    30.046    0.17E-04    0.41E-05    0.51E-07
   0     12    13.455    45.433    0.12E-04    0.27E-04    0.38E-06
 Optimization of the real space projectors (new method)

 maximal supplied QI-value         = 24.76
 optimisation between [QCUT,QGAM] = [ 13.37, 26.98] = [ 50.04,203.89] Ry 
 Optimized for a Real-space Cutoff    1.17 Angstroem

   l    n(q)    QCUT    max X(q) W(low)/X(q) W(high)/X(q)  e(spline) 
   0      9    13.368     4.192    0.20E-04    0.58E-05    0.56E-07
   0      9    13.368     8.473    0.60E-04    0.52E-04    0.21E-06
   1      9    13.368     2.474    0.22E-04    0.17E-04    0.28E-07
   1      9    13.368     3.912    0.94E-04    0.97E-04    0.20E-06
 Optimization of the real space projectors (new method)

 maximal supplied QI-value         = 24.76
 optimisation between [QCUT,QGAM] = [ 13.37, 26.98] = [ 50.04,203.89] Ry 
 Optimized for a Real-space Cutoff    1.17 Angstroem

   l    n(q)    QCUT    max X(q) W(low)/X(q) W(high)/X(q)  e(spline) 
   0      9    13.368    14.049    0.39E-04    0.34E-04    0.16E-06
   0      9    13.368     8.945    0.54E-04    0.47E-04    0.20E-06
   1      9    13.368     7.086    0.99E-04    0.10E-03    0.23E-06
   1      9    13.368     6.747    0.86E-04    0.89E-04    0.21E-06
 -----------------------------------------------------------------------------
|                                                                             |
|               ----> ADVICE to this user running VASP <----                  |
|                                                                             |
|     You enforced a specific xc type in the INCAR file but a different       |
|     type was found in the POTCAR file.                                      |
|     I HOPE YOU KNOW WHAT YOU ARE DOING!                                     |
|                                                                             |
 -----------------------------------------------------------------------------

 PAW_PBE Ti_pv 07Sep2000                :
 energy of atom  1       EATOM=-1042.3781
 kinetic energy error for atom=    0.0006 (will be added to EATOM!!)
 PAW_PBE O 08Apr2002                    :
 energy of atom  2       EATOM= -432.3788
 kinetic energy error for atom=    0.0091 (will be added to EATOM!!)
  PAW_PBE F 08Apr2002                   :
 energy of atom  3       EATOM= -659.6475
 kinetic energy error for atom=    0.0140 (will be added to EATOM!!)
 
 
 POSCAR: Ti27 O27 F54
  positions in direct lattice
  velocities in cartesian coordinates
 exchange correlation table for  LEXCH =       14
   RHO(1)=    0.500       N(1)  =     2000
   RHO(2)=  100.500       N(2)  =     4000
 


--------------------------------------------------------------------------------------------------------


 ion  position               nearest neighbor table
   1  0.009  0.000  0.000-  37 1.82  92 1.91  91 1.92  55 1.92  58 1.93  83 2.01
   2  0.000  0.013  0.344-  28 1.78  46 1.81  84 1.95  73 1.95  91 2.10  59 2.12
   3  0.996  0.011  0.656-  29 1.82  46 1.84  45 1.91  74 2.01  60 2.07  92 2.10
   4  0.000  0.346  1.000-  30 1.78  94 1.92  93 1.92  85 1.92  75 1.92  55 2.09
   5  0.010  0.324  0.343-  38 1.81  47 1.84  28 1.85  86 2.07  93 2.08  56 2.11
   6  0.006  0.325  0.655-  47 1.81  29 1.84  39 1.90  87 2.02  57 2.07  94 2.10
   7  0.001  0.660  0.988-  48 1.78  30 1.86  88 1.92  76 1.93  58 2.04  95 2.10
   8  0.999  0.667  0.332-  77 1.88  89 1.89  56 1.89  59 1.89  95 1.90  96 1.91
   9  0.013  0.666  0.676-  40 1.78  48 1.85  60 1.94  57 1.94  90 2.09  96 2.09
  10  0.324  0.000  1.000-  37 1.84  65 1.91  61 1.91  97 1.91  98 1.92  78 2.01
  11  0.343  0.999  0.345-  41 1.82  49 1.82  62 1.93  66 1.94  73 2.07  97 2.10
  12  0.334  0.987  0.657-  33 1.79  49 1.83  79 1.95  74 1.96  98 2.08  63 2.08
  13  0.340  0.343  0.012-  50 1.80  31 1.85  42 1.87  61 2.07  75 2.08 100 2.09
  14  0.323  0.343  0.324-  32 1.84  38 1.84  50 1.85  62 2.07  99 2.08  80 2.09
  15  0.320  0.333  0.667-  39 1.76 100 1.93  99 1.93  63 1.94  64 1.94  81 2.08
  16  0.343  0.654  0.000-  31 1.80  43 1.82 102 1.94 101 1.95  76 2.09  65 2.12
  17  0.343  0.658  0.341-  32 1.82  44 1.85  51 1.85 101 2.06  66 2.07  77 2.11
  18  0.326  0.675  0.656-  51 1.81  33 1.86  40 1.88  64 2.06  82 2.06 102 2.07
  19  0.667  0.988  0.010-  36 1.80  52 1.81  83 1.98  78 1.98  67 2.06 104 2.07
  20  0.658  0.004  0.323-  52 1.84  41 1.84  34 1.90  71 2.01  84 2.05 103 2.07
  21  0.680  0.999  0.667-  45 1.76 103 1.93 104 1.94  72 1.94  68 1.95  79 2.06
  22  0.654  0.334  0.992-  42 1.78  53 1.86  67 1.95  69 1.95 105 2.05  85 2.10
  23  0.669  0.320  0.334-  34 1.77  80 1.92  86 1.93 106 1.94 105 1.95  70 2.08
  24  0.666  0.340  0.678-  53 1.79  35 1.87  81 1.93  87 1.93  68 2.02 106 2.06
  25  0.657  0.675  0.010-  54 1.84  43 1.84  36 1.86  69 2.05  88 2.07 108 2.08
  26  0.654  0.666  0.322-  44 1.78  54 1.81  70 1.95  71 1.96 107 2.09  89 2.12
  27  0.668  0.654  0.667-  35 1.78  82 1.92 108 1.92 107 1.93  90 1.93  72 2.07
  28  0.992  0.166  0.329-   2 1.78   5 1.85
  29  0.002  0.167  0.671-   3 1.82   6 1.84
  30  0.008  0.500  0.003-   4 1.78   7 1.86
  31  0.318  0.500  0.002-  16 1.80  13 1.85
  32  0.335  0.501  0.330-  17 1.82  14 1.84
  33  0.336  0.834  0.674-  12 1.79  18 1.86
  34  0.673  0.168  0.334-  23 1.77  20 1.90
  35  0.669  0.501  0.664-  27 1.78  24 1.87
  36  0.667  0.834  0.992-  19 1.80  25 1.86
  37  0.165  0.999  0.001-   1 1.82  10 1.84
  38  0.166  0.333  0.337-   5 1.81  14 1.84
  39  0.168  0.343  0.667-  15 1.76   6 1.90
  40  0.165  0.657  0.665-   9 1.78  18 1.88
  41  0.499  0.994  0.335-  11 1.82  20 1.84
  42  0.501  0.338  0.000-  22 1.78  13 1.87
  43  0.499  0.660  0.001-  16 1.82  25 1.84
  44  0.501  0.675  0.329-  26 1.78  17 1.85
  45  0.832  0.996  0.669-  21 1.76   3 1.91
  46  0.010  0.997  0.499-   2 1.81   3 1.84
  47  0.993  0.339  0.500-   6 1.81   5 1.84
  48  0.998  0.669  0.834-   7 1.78   9 1.85
  49  0.325  0.997  0.501-  11 1.82  12 1.83
  50  0.332  0.326  0.166-  13 1.80  14 1.85
  51  0.334  0.670  0.500-  18 1.81  17 1.85
  52  0.669  0.996  0.166-  19 1.81  20 1.84
  53  0.668  0.330  0.832-  24 1.79  22 1.86
  54  0.675  0.667  0.168-  26 1.81  25 1.84
  55  0.997  0.166  0.999-   1 1.92   4 2.09
  56  0.999  0.504  0.325-   8 1.89   5 2.11
  57  0.984  0.501  0.670-   9 1.94   6 2.07
  58  0.992  0.834  0.006-   1 1.93   7 2.04
  59  0.000  0.830  0.329-   8 1.89   2 2.12
  60  0.005  0.833  0.665-   9 1.94   3 2.07
  61  0.333  0.165  0.995-  10 1.91  13 2.07
  62  0.336  0.166  0.336-  11 1.93  14 2.07
  63  0.331  0.166  0.670-  15 1.94  12 2.08
  64  0.347  0.499  0.670-  15 1.94  18 2.06
  65  0.337  0.836  0.996-  10 1.91  16 2.12
  66  0.321  0.834  0.325-  11 1.94  17 2.07
  67  0.669  0.167  0.004-  22 1.95  19 2.06
  68  0.667  0.166  0.658-  21 1.95  24 2.02
  69  0.679  0.500  0.997-  22 1.95  25 2.05
  70  0.665  0.499  0.341-  26 1.95  23 2.08
  71  0.677  0.833  0.341-  26 1.96  20 2.01
  72  0.660  0.833  0.673-  21 1.94  27 2.07
  73  0.166  0.002  0.318-   2 1.95  11 2.07
  74  0.167  0.999  0.682-  12 1.96   3 2.01
  75  0.164  0.319  0.993-   4 1.92  13 2.08
  76  0.165  0.684  0.003-   7 1.93  16 2.09
  77  0.161  0.667  0.332-   8 1.88  17 2.11
  78  0.497  0.005  1.000-  19 1.98  10 2.01
  79  0.502  0.006  0.665-  12 1.95  21 2.06
  80  0.503  0.331  0.335-  23 1.92  14 2.09
  81  0.500  0.328  0.665-  24 1.93  15 2.08
  82  0.503  0.666  0.673-  27 1.92  18 2.06
  83  0.836  0.004  0.992-  19 1.98   1 2.01
  84  0.834  0.990  0.338-   2 1.95  20 2.05
  85  0.835  0.331  0.004-   4 1.92  22 2.10
  86  0.833  0.345  0.327-  23 1.93   5 2.07
  87  0.832  0.329  0.668-  24 1.93   6 2.02
  88  0.836  0.666  0.001-   7 1.92  25 2.07
  89  0.836  0.665  0.340-   8 1.89  26 2.12
  90  0.834  0.676  0.660-  27 1.93   9 2.09
  91  0.991  0.997  0.164-   1 1.92   2 2.10
  92  1.000  0.992  0.836-   1 1.91   3 2.10
  93  0.001  0.332  0.164-   4 1.92   5 2.08
  94  0.994  0.336  0.835-   4 1.92   6 2.10
  95  0.996  0.671  0.168-   8 1.90   7 2.10
  96  0.999  0.665  0.496-   8 1.91   9 2.09
  97  0.336  0.003  0.164-  10 1.91  11 2.10
  98  0.338  0.005  0.835-  10 1.92  12 2.08
  99  0.341  0.330  0.502-  15 1.93  14 2.08
 100  0.335  0.330  0.833-  15 1.93  13 2.09
 101  0.324  0.676  0.166-  16 1.95  17 2.06
 102  0.330  0.665  0.834-  16 1.94  18 2.07
 103  0.667  0.995  0.502-  21 1.93  20 2.07
 104  0.661  0.011  0.833-  21 1.94  19 2.07
 105  0.669  0.338  0.167-  23 1.95  22 2.05
 106  0.670  0.333  0.501-  23 1.94  24 2.06
 107  0.667  0.672  0.502-  27 1.93  26 2.09
 108  0.676  0.663  0.832-  27 1.92  25 2.08
 

IMPORTANT INFORMATION: All symmetrisations will be switched off!
NOSYMM: (Re-)initialisation of all symmetry stuff for point group C_1.


----------------------------------------------------------------------------------------

                                     Primitive cell                                     

  volume of cell :    1557.9508

  direct lattice vectors                    reciprocal lattice vectors
    11.585576320 -0.015956325  0.012733662     0.086314491  0.000118901 -0.000095817
    -0.015950372 11.584975886  0.007467139     0.000118945  0.086318895 -0.000055978
     0.012875119  0.007509799 11.607601330    -0.000094764 -0.000055659  0.086150584

  length of vectors
    11.585594305 11.584989273 11.607610900     0.086314626  0.086318995  0.086150654

  position of ions in fractional coordinates (direct lattice)
     0.008528554  0.000489121  0.000188069
     0.000153148  0.012941742  0.344342071
     0.995886315  0.010640249  0.656445879
     0.000016603  0.346302304  0.999562975
     0.009955944  0.323975465  0.343392515
     0.005647169  0.324557202  0.654606218
     0.000670734  0.659940923  0.987534504
     0.998758782  0.667311529  0.332033610
     0.012549422  0.665949211  0.675916805
     0.323908904  0.000482322  0.999658913
     0.342786702  0.998945733  0.344716602
     0.334480572  0.987496828  0.657216598
     0.340253854  0.342948249  0.011965974
     0.323399256  0.343213023  0.323851318
     0.320435849  0.333352490  0.667250936
     0.342648683  0.654040893  0.000234275
     0.342986051  0.657636862  0.341320712
     0.326004023  0.674644493  0.655569431
     0.666581686  0.988499015  0.009860388
     0.657748465  0.004383821  0.323409815
     0.679971455  0.998862328  0.667099085
     0.654479156  0.333578033  0.991514463
     0.668503827  0.320165198  0.334217323
     0.665539670  0.339840230  0.678298018
     0.657378837  0.674882325  0.010307458
     0.654300074  0.666263852  0.322365512
     0.668464378  0.654197148  0.666835820
     0.991544418  0.165758895  0.329462231
     0.002450990  0.166521157  0.670932753
     0.008167349  0.500033319  0.003018325
     0.318122259  0.500489438  0.001954755
     0.335079044  0.501193203  0.330384209
     0.335700632  0.833874737  0.673661733
     0.673293612  0.167533519  0.334379927
     0.668724364  0.500782834  0.664125320
     0.666549383  0.834474978  0.991535244
     0.165350203  0.998652141  0.001352660
     0.165623011  0.332826935  0.337426502
     0.168448178  0.342853080  0.666500572
     0.165124950  0.656692624  0.665181902
     0.499486681  0.994065076  0.335080711
     0.501426257  0.338254036  0.000019333
     0.499429212  0.659538975  0.001182168
     0.500960023  0.675098085  0.328808019
     0.831957302  0.996154207  0.668507233
     0.009945652  0.996821368  0.499490656
     0.993219363  0.338970927  0.500057118
     0.998370743  0.669444756  0.834398438
     0.324617638  0.997323141  0.500531540
     0.331657313  0.325755472  0.165950474
     0.334233428  0.669850530  0.500037839
     0.669382966  0.995793711  0.165900810
     0.668006650  0.329809378  0.832227267
     0.674532809  0.666827356  0.167760231
     0.996834162  0.165720761  0.998724843
     0.998760018  0.504412942  0.324514746
     0.984421603  0.500843140  0.669540000
     0.992280168  0.834475676  0.006128149
     0.000443348  0.830430760  0.329367703
     0.004541253  0.832515781  0.664772776
     0.332976483  0.164934549  0.994543876
     0.335509453  0.165566670  0.335990176
     0.330704372  0.166340718  0.669531902
     0.347277857  0.498676848  0.670183019
     0.337317132  0.836492777  0.996420746
     0.320669297  0.834008755  0.325236594
     0.669095603  0.166627197  0.004178255
     0.666749026  0.166476559  0.657831613
     0.679066690  0.499936245  0.997314670
     0.665480639  0.499128529  0.340698220
     0.677281470  0.832557668  0.341222565
     0.659769267  0.832683579  0.673433591
     0.166327529  0.001507723  0.317757743
     0.167339221  0.998843906  0.681979353
     0.163631137  0.319217283  0.992838996
     0.164964921  0.683659868  0.003040043
     0.161129295  0.666996513  0.332071139
     0.497163865  0.004629743  0.999751404
     0.501901702  0.005617220  0.665483328
     0.503007861  0.331255772  0.335243694
     0.499783772  0.327607227  0.665000320
     0.502988905  0.666388613  0.672860721
     0.835528527  0.004144919  0.992373815
     0.833698737  0.990430856  0.338201014
     0.835118817  0.331054383  0.004299139
     0.833126382  0.345364552  0.326708422
     0.831750337  0.329113457  0.668043911
     0.835547683  0.665695749  0.001382515
     0.836120479  0.664792945  0.339989669
     0.833581152  0.676171285  0.659868810
     0.991412272  0.996527575  0.164391210
     0.999598571  0.991765955  0.836162736
     0.000933865  0.332269889  0.164278998
     0.993752336  0.336333278  0.834753819
     0.996197753  0.670758456  0.168353744
     0.999026908  0.665102721  0.496295903
     0.335863804  0.003434916  0.163675020
     0.338139267  0.004791803  0.835286123
     0.340985210  0.330074185  0.502000794
     0.335042425  0.330193486  0.832861995
     0.323828697  0.675691343  0.165899655
     0.329966058  0.665403963  0.833810209
     0.666674074  0.995155673  0.501656682
     0.661334288  0.011105140  0.832703171
     0.668549973  0.338372136  0.167281627
     0.670367387  0.333324087  0.500596893
     0.667106598  0.671533007  0.501647166
     0.675889809  0.662906751  0.832233513

  ion indices of the primitive-cell ions
   primitive index   ion index
                 1           1
                 2           2
                 3           3
                 4           4
                 5           5
                 6           6
                 7           7
                 8           8
                 9           9
                10          10
                11          11
                12          12
                13          13
                14          14
                15          15
                16          16
                17          17
                18          18
                19          19
                20          20
                21          21
                22          22
                23          23
                24          24
                25          25
                26          26
                27          27
                28          28
                29          29
                30          30
                31          31
                32          32
                33          33
                34          34
                35          35
                36          36
                37          37
                38          38
                39          39
                40          40
                41          41
                42          42
                43          43
                44          44
                45          45
                46          46
                47          47
                48          48
                49          49
                50          50
                51          51
                52          52
                53          53
                54          54
                55          55
                56          56
                57          57
                58          58
                59          59
                60          60
                61          61
                62          62
                63          63
                64          64
                65          65
                66          66
                67          67
                68          68
                69          69
                70          70
                71          71
                72          72
                73          73
                74          74
                75          75
                76          76
                77          77
                78          78
                79          79
                80          80
                81          81
                82          82
                83          83
                84          84
                85          85
                86          86
                87          87
                88          88
                89          89
                90          90
                91          91
                92          92
                93          93
                94          94
                95          95
                96          96
                97          97
                98          98
                99          99
               100         100
               101         101
               102         102
               103         103
               104         104
               105         105
               106         106
               107         107
               108         108

----------------------------------------------------------------------------------------

 
 
 KPOINTS: Title                                   

Automatic generation of k-mesh.
 Grid dimensions read from file:
 generate k-points for:    3    3    3

 Generating k-lattice:

  Cartesian coordinates                     Fractional coordinates (reciprocal lattice)
     0.028771497  0.000039634 -0.000031939     0.333333333 -0.000000000  0.000000000
     0.000039648  0.028772965 -0.000018659     0.000000000  0.333333333  0.000000000
    -0.000031588 -0.000018553  0.028716861     0.000000000  0.000000000  0.333333333

  Length of vectors
     0.028771542  0.028772998  0.028716885

  Shift w.r.t. Gamma in fractional coordinates (k-lattice)
     0.000000000  0.000000000  0.000000000

 
 Subroutine IBZKPT returns following result:
 ===========================================
 
 Found     14 irreducible k-points:
 
 Following reciprocal coordinates:
            Coordinates               Weight
  0.000000  0.000000  0.000000      1.000000
  0.333333  0.000000 -0.000000      2.000000
 -0.000000  0.333333 -0.000000      2.000000
  0.333333  0.333333 -0.000000      2.000000
 -0.333333  0.333333  0.000000      2.000000
 -0.000000 -0.000000  0.333333      2.000000
  0.333333 -0.000000  0.333333      2.000000
 -0.333333 -0.000000  0.333333      2.000000
 -0.000000  0.333333  0.333333      2.000000
  0.333333  0.333333  0.333333      2.000000
 -0.333333  0.333333  0.333333      2.000000
  0.000000 -0.333333  0.333333      2.000000
  0.333333 -0.333333  0.333333      2.000000
 -0.333333 -0.333333  0.333333      2.000000
 
 Following cartesian coordinates:
            Coordinates               Weight
  0.000000  0.000000  0.000000      1.000000
  0.028771  0.000040 -0.000032      2.000000
  0.000040  0.028773 -0.000019      2.000000
  0.028811  0.028813 -0.000051      2.000000
 -0.028732  0.028733  0.000013      2.000000
 -0.000032 -0.000019  0.028717      2.000000
  0.028740  0.000021  0.028685      2.000000
 -0.028803 -0.000058  0.028749      2.000000
  0.000008  0.028754  0.028698      2.000000
  0.028780  0.028794  0.028666      2.000000
 -0.028763  0.028715  0.028730      2.000000
 -0.000071 -0.028792  0.028736      2.000000
  0.028700 -0.028752  0.028704      2.000000
 -0.028843 -0.028831  0.028767      2.000000
 


--------------------------------------------------------------------------------------------------------




 Dimension of arrays:
   k-points           NKPTS =     14   k-points in BZ     NKDIM =     14   number of bands    NBANDS=    540
   number of dos      NEDOS =   3001   number of ions     NIONS =    108
   non local maximal  LDIM  =      6   non local SUM 2l+1 LMDIM =     18
   total plane-waves  NPLWV = ******
   max r-space proj   IRMAX =   8906   max aug-charges    IRDMAX= 199537
   dimension x,y,z NGX =   100 NGY =  100 NGZ =  100
   dimension x,y,z NGXF=   200 NGYF=  200 NGZF=  200
   support grid    NGXF=   400 NGYF=  400 NGZF=  400
   ions per type =              27  27  54
   NGX,Y,Z   is equivalent  to a cutoff of  14.35, 14.35, 14.32 a.u.
   NGXF,Y,Z  is equivalent  to a cutoff of  28.70, 28.70, 28.64 a.u.

 SYSTEM =  LTO                                     
 POSCAR =  Ti27 O27 F54                            

 Startparameter for this run:
   NWRITE =      2    write-flag & timer
   PREC   = accura    normal or accurate (medium, high low for compatibility)
   ISTART =      1    job   : 0-new  1-cont  2-samecut
   ICHARG =      0    charge: 1-file 2-atom 10-const
   ISPIN  =      2    spin polarized calculation?
   LNONCOLLINEAR =      F non collinear calculations
   LSORBIT =      F    spin-orbit coupling
   INIWAV =      1    electr: 0-lowe 1-rand  2-diag
   LASPH  =      T    aspherical Exc in radial PAW
 Electronic Relaxation 1
   ENCUT  =  700.0 eV  51.45 Ry    7.17 a.u.  24.99 24.99 25.04*2*pi/ulx,y,z
   ENINI  =  700.0     initial cutoff
   ENAUG  =  613.6 eV  augmentation charge cutoff
   NELM   =     60;   NELMIN=  2; NELMDL=  0     # of ELM steps 
   EDIFF  = 0.1E-05   stopping-criterion for ELM
   LREAL  =      T    real-space projection
   NLSPLINE    = F    spline interpolate recip. space projectors
   LCOMPAT=      F    compatible to vasp.4.4
   GGA_COMPAT  = T    GGA compatible to vasp.4.4-vasp.4.6
   LMAXPAW     = -100 max onsite density
   LMAXMIX     =    4 max onsite mixed and CHGCAR
   VOSKOWN=      0    Vosko Wilk Nusair interpolation
   ROPT   =   -0.00010  -0.00010  -0.00010
 Ionic relaxation
   EDIFFG = -.1E-01   stopping-criterion for IOM
   NSW    =    100    number of steps for IOM
   NBLOCK =      1;   KBLOCK =    100    inner block; outer block 
   IBRION =      1    ionic relax: 0-MD 1-quasi-New 2-CG
   NFREE  =      0    steps in history (QN), initial steepest desc. (CG)
   ISIF   =      3    stress and relaxation
   IWAVPR =     11    prediction:  0-non 1-charg 2-wave 3-comb
   ISYM   =      0    0-nonsym 1-usesym 2-fastsym
   LCORR  =      T    Harris-Foulkes like correction to forces

   POTIM  = 0.5000    time-step for ionic-motion
   TEIN   =    0.0    initial temperature
   TEBEG  =    0.0;   TEEND  =   0.0 temperature during run
   SMASS  =  -3.00    Nose mass-parameter (am)
   estimated Nose-frequenzy (Omega)   =  0.10E-29 period in steps = 0.13E+47 mass=  -0.307E-26a.u.
   SCALEE = 1.0000    scale energy and forces
   NPACO  =    256;   APACO  = 10.0  distance and # of slots for P.C.
   PSTRESS=    0.0 pullay stress

  Mass of Ions in am
   POMASS =  47.88 16.00 19.00
  Ionic Valenz
   ZVAL   =  10.00  6.00  7.00
  Atomic Wigner-Seitz radii
   RWIGS  =  -1.00 -1.00 -1.00
  virtual crystal weights 
   VCA    =   1.00  1.00  1.00
   NELECT =     810.0000    total number of electrons
   NUPDOWN=      -1.0000    fix difference up-down

 DOS related values:
   EMIN   =  10.00;   EMAX   =-10.00  energy-range for DOS
   EFERMI =   0.00
   ISMEAR =     0;   SIGMA  =   0.01  broadening in eV -4-tet -1-fermi 0-gaus

 Electronic relaxation 2 (details)
   IALGO  =     38    algorithm
   LDIAG  =      T    sub-space diagonalisation (order eigenvalues)
   LSUBROT=      F    optimize rotation matrix (better conditioning)
   TURBO    =      0    0=normal 1=particle mesh
   IRESTART =      0    0=no restart 2=restart with 2 vectors
   NREBOOT  =      0    no. of reboots
   NMIN     =      0    reboot dimension
   EREF     =   0.00    reference energy to select bands
   IMIX   =      4    mixing-type and parameters
     AMIX     =   0.40;   BMIX     =  1.00
     AMIX_MAG =   1.60;   BMIX_MAG =  1.00
     AMIN     =   0.10
     WC   =   100.;   INIMIX=   1;  MIXPRE=   1;  MAXMIX= -45

 Intra band minimization:
   WEIMIN = 0.0010     energy-eigenvalue tresh-hold
   EBREAK =  0.46E-09  absolut break condition
   DEPER  =   0.30     relativ break condition  

   TIME   =   0.40     timestep for ELM

  volume/ion in A,a.u.               =      14.43        97.35
  Fermi-wavevector in a.u.,A,eV,Ry     =   1.316392  2.487620 23.577374  1.732888
  Thomas-Fermi vector in A             =   2.446507
 
 Write flags
   LWAVE        =      T    write WAVECAR
   LDOWNSAMPLE  =      F    k-point downsampling of WAVECAR
   LCHARG       =      T    write CHGCAR
   LVTOT        =      F    write LOCPOT, total local potential
   LVHAR        =      F    write LOCPOT, Hartree potential only
   LELF         =      F    write electronic localiz. function (ELF)
   LORBIT       =     11    0 simple, 1 ext, 2 COOP (PROOUT), +10 PAW based schemes


 Dipole corrections
   LMONO  =      F    monopole corrections only (constant potential shift)
   LDIPOL =      F    correct potential (dipole corrections)
   IDIPOL =      0    1-x, 2-y, 3-z, 4-all directions 
   EPSILON=  1.0000000 bulk dielectric constant

 LDA+U is selected, type is set to LDAUTYPE =  2
   angular momentum for each species LDAUL =     2   -1   -1
   U (eV)           for each species LDAUU =   4.2  0.0  0.0
   J (eV)           for each species LDAUJ =   0.0  0.0  0.0
 Exchange correlation treatment:
   GGA     =    PS    GGA type
   LEXCH   =    14    internal setting for exchange type
   LIBXC   =     F    Libxc                    
   VOSKOWN =     0    Vosko Wilk Nusair interpolation
   LHFCALC =     F    Hartree Fock is set to
   LHFONE  =     F    Hartree Fock one center treatment
   AEXX    =    0.0000 exact exchange contribution

 Linear response parameters
   LEPSILON=     F    determine dielectric tensor
   LRPA    =     F    only Hartree local field effects (RPA)
   LNABLA  =     F    use nabla operator in PAW spheres
   LVEL    =     F    velocity operator in full k-point grid
   CSHIFT  =0.1000    complex shift for real part using Kramers Kronig
   OMEGAMAX=  -1.0    maximum frequency
   DEG_THRESHOLD= 0.2000000E-02 threshold for treating states as degnerate
   RTIME   =   -0.100 relaxation time in fs
  (WPLASMAI=    0.000 imaginary part of plasma frequency in eV, 0.658/RTIME)
   DFIELD  = 0.0000000 0.0000000 0.0000000 field for delta impulse in time
 
  Optional k-point grid parameters
   LKPOINTS_OPT  =     F    use optional k-point grid
   KPOINTS_OPT_MODE=     1    mode for optional k-point grid
 
 Orbital magnetization related:
   ORBITALMAG=     F  switch on orbital magnetization
   LCHIMAG   =     F  perturbation theory with respect to B field
   DQ        =  0.001000  dq finite difference perturbation B field
   LLRAUG    =     F  two centre corrections for induced B field



--------------------------------------------------------------------------------------------------------


 quasi-Newton-method for relaxation of ions
 charge density and potential will be updated during run
 spin polarized calculation
 Variant of blocked Davidson
 Davidson routine will perform the subspace rotation
 perform sub-space diagonalisation
    after iterative eigenvector-optimisation
 modified Broyden-mixing scheme, WC =      100.0
 initial mixing is a Kerker type mixing with AMIX =  0.4000 and BMIX =      1.0000
 Hartree-type preconditioning will be used
 using additional bands          135
 real space projection scheme for non local part
 use partial core corrections
 calculate Harris-corrections to forces 
   (improved forces if not selfconsistent)
 use gradient corrections 
 use of overlap-Matrix (Vanderbilt PP)
 Gauss-broadening in eV      SIGMA  =   0.01


--------------------------------------------------------------------------------------------------------


  energy-cutoff  :      700.00
  volume of cell :     1557.95
      direct lattice vectors                 reciprocal lattice vectors
    11.585576320 -0.015956325  0.012733662     0.086314491  0.000118901 -0.000095817
    -0.015950372 11.584975886  0.007467139     0.000118945  0.086318895 -0.000055978
     0.012875119  0.007509799 11.607601330    -0.000094764 -0.000055659  0.086150584

  length of vectors
    11.585594305 11.584989273 11.607610900     0.086314626  0.086318995  0.086150654


 
 old parameters found on file WAVECAR:
  energy-cutoff  :      700.00
  volume of cell :     1557.95
      direct lattice vectors                 reciprocal lattice vectors
    11.585576320 -0.015956325  0.012733662     0.086314491  0.000118901 -0.000095817
    -0.015950372 11.584975886  0.007467139     0.000118945  0.086318895 -0.000055978
     0.012875119  0.007509799 11.607601330    -0.000094764 -0.000055659  0.086150584

  length of vectors

 
 k-points in units of 2pi/SCALE and weight: Title                                   
   0.00000000  0.00000000  0.00000000       0.037
   0.02877150  0.00003963 -0.00003194       0.074
   0.00003965  0.02877296 -0.00001866       0.074
   0.02881115  0.02881260 -0.00005060       0.074
  -0.02873185  0.02873333  0.00001328       0.074
  -0.00003159 -0.00001855  0.02871686       0.074
   0.02873991  0.00002108  0.02868492       0.074
  -0.02880308 -0.00005819  0.02874880       0.074
   0.00000806  0.02875441  0.02869820       0.074
   0.02877956  0.02879405  0.02866626       0.074
  -0.02876344  0.02871478  0.02873014       0.074
  -0.00007124 -0.02879152  0.02873552       0.074
   0.02870026 -0.02875188  0.02870358       0.074
  -0.02884273 -0.02883115  0.02876746       0.074
 
 k-points in reciprocal lattice and weights: Title                                   
   0.00000000  0.00000000  0.00000000       0.037
   0.33333333  0.00000000 -0.00000000       0.074
  -0.00000000  0.33333333 -0.00000000       0.074
   0.33333333  0.33333333 -0.00000000       0.074
  -0.33333333  0.33333333  0.00000000       0.074
  -0.00000000 -0.00000000  0.33333333       0.074
   0.33333333 -0.00000000  0.33333333       0.074
  -0.33333333 -0.00000000  0.33333333       0.074
  -0.00000000  0.33333333  0.33333333       0.074
   0.33333333  0.33333333  0.33333333       0.074
  -0.33333333  0.33333333  0.33333333       0.074
   0.00000000 -0.33333333  0.33333333       0.074
   0.33333333 -0.33333333  0.33333333       0.074
  -0.33333333 -0.33333333  0.33333333       0.074
 
 position of ions in fractional coordinates (direct lattice) 
   0.00852855  0.00048912  0.00018807
   0.00015315  0.01294174  0.34434207
   0.99588632  0.01064025  0.65644588
   0.00001660  0.34630230  0.99956298
   0.00995594  0.32397547  0.34339252
   0.00564717  0.32455720  0.65460622
   0.00067073  0.65994092  0.98753450
   0.99875878  0.66731153  0.33203361
   0.01254942  0.66594921  0.67591681
   0.32390890  0.00048232  0.99965891
   0.34278670  0.99894573  0.34471660
   0.33448057  0.98749683  0.65721660
   0.34025385  0.34294825  0.01196597
   0.32339926  0.34321302  0.32385132
   0.32043585  0.33335249  0.66725094
   0.34264868  0.65404089  0.00023427
   0.34298605  0.65763686  0.34132071
   0.32600402  0.67464449  0.65556943
   0.66658169  0.98849901  0.00986039
   0.65774847  0.00438382  0.32340981
   0.67997145  0.99886233  0.66709909
   0.65447916  0.33357803  0.99151446
   0.66850383  0.32016520  0.33421732
   0.66553967  0.33984023  0.67829802
   0.65737884  0.67488232  0.01030746
   0.65430007  0.66626385  0.32236551
   0.66846438  0.65419715  0.66683582
   0.99154442  0.16575889  0.32946223
   0.00245099  0.16652116  0.67093275
   0.00816735  0.50003332  0.00301832
   0.31812226  0.50048944  0.00195476
   0.33507904  0.50119320  0.33038421
   0.33570063  0.83387474  0.67366173
   0.67329361  0.16753352  0.33437993
   0.66872436  0.50078283  0.66412532
   0.66654938  0.83447498  0.99153524
   0.16535020  0.99865214  0.00135266
   0.16562301  0.33282693  0.33742650
   0.16844818  0.34285308  0.66650057
   0.16512495  0.65669262  0.66518190
   0.49948668  0.99406508  0.33508071
   0.50142626  0.33825404  0.00001933
   0.49942921  0.65953897  0.00118217
   0.50096002  0.67509808  0.32880802
   0.83195730  0.99615421  0.66850723
   0.00994565  0.99682137  0.49949066
   0.99321936  0.33897093  0.50005712
   0.99837074  0.66944476  0.83439844
   0.32461764  0.99732314  0.50053154
   0.33165731  0.32575547  0.16595047
   0.33423343  0.66985053  0.50003784
   0.66938297  0.99579371  0.16590081
   0.66800665  0.32980938  0.83222727
   0.67453281  0.66682736  0.16776023
   0.99683416  0.16572076  0.99872484
   0.99876002  0.50441294  0.32451475
   0.98442160  0.50084314  0.66954000
   0.99228017  0.83447568  0.00612815
   0.00044335  0.83043076  0.32936770
   0.00454125  0.83251578  0.66477278
   0.33297648  0.16493455  0.99454388
   0.33550945  0.16556667  0.33599018
   0.33070437  0.16634072  0.66953190
   0.34727786  0.49867685  0.67018302
   0.33731713  0.83649278  0.99642075
   0.32066930  0.83400875  0.32523659
   0.66909560  0.16662720  0.00417825
   0.66674903  0.16647656  0.65783161
   0.67906669  0.49993624  0.99731467
   0.66548064  0.49912853  0.34069822
   0.67728147  0.83255767  0.34122257
   0.65976927  0.83268358  0.67343359
   0.16632753  0.00150772  0.31775774
   0.16733922  0.99884391  0.68197935
   0.16363114  0.31921728  0.99283900
   0.16496492  0.68365987  0.00304004
   0.16112929  0.66699651  0.33207114
   0.49716387  0.00462974  0.99975140
   0.50190170  0.00561722  0.66548333
   0.50300786  0.33125577  0.33524369
   0.49978377  0.32760723  0.66500032
   0.50298890  0.66638861  0.67286072
   0.83552853  0.00414492  0.99237382
   0.83369874  0.99043086  0.33820101
   0.83511882  0.33105438  0.00429914
   0.83312638  0.34536455  0.32670842
   0.83175034  0.32911346  0.66804391
   0.83554768  0.66569575  0.00138251
   0.83612048  0.66479295  0.33998967
   0.83358115  0.67617129  0.65986881
   0.99141227  0.99652758  0.16439121
   0.99959857  0.99176595  0.83616274
   0.00093386  0.33226989  0.16427900
   0.99375234  0.33633328  0.83475382
   0.99619775  0.67075846  0.16835374
   0.99902691  0.66510272  0.49629590
   0.33586380  0.00343492  0.16367502
   0.33813927  0.00479180  0.83528612
   0.34098521  0.33007418  0.50200079
   0.33504243  0.33019349  0.83286200
   0.32382870  0.67569134  0.16589965
   0.32996606  0.66540396  0.83381021
   0.66667407  0.99515567  0.50165668
   0.66133429  0.01110514  0.83270317
   0.66854997  0.33837214  0.16728163
   0.67036739  0.33332409  0.50059689
   0.66710660  0.67153301  0.50164717
   0.67588981  0.66290675  0.83223351
 
 position of ions in cartesian coordinates  (Angst):
   0.09880283  0.00553179  0.00229528
   0.00600133  0.15251326  3.99708407
  11.54619901  0.11230612  7.63252279
   0.00753820  4.01941009 11.60511462
   0.11459904  3.75566790  3.98850936
   0.06867704  3.76481322  7.60090343
   0.00995916  7.65280517 11.46784323
  11.56482719  7.71734496  3.87181454
   0.14347266  7.71988131  7.85090535
   3.76553436  0.00792653 11.60777028
   3.95988621 11.56988137  4.01315709
   3.86786099 11.43972542  7.64034119
   3.93672091  3.96770786  0.14578977
   3.74546201  3.97338639  3.76581787
   3.71570782  3.86177849  7.75175236
   3.95935329  7.57158231  0.01196636
   3.96759606  7.61579764  3.97119288
   3.77462419  7.81546155  7.61877749
   7.70709302 11.44117511  0.13032473
   7.62448906  0.04271995  3.76242048
   7.87051794 11.56595592  7.75953740
   7.58996338  3.86149646 11.51992939
   7.74419844  3.70094913  3.89036466
   7.71397323  3.93151518  7.88442537
   7.60548078  7.80808351  0.13305514
   7.57396678  7.71063133  3.75519706
   7.74269597  7.57319975  7.75376133
  11.48921148  1.90696559  3.83812997
   0.03437840  1.93414305  7.78919456
   0.08668659  5.79276628  0.03887333
   3.67767188  5.79309669  0.03047810
   3.87834335  5.80344566  3.84297745
   3.88465815  9.66012124  7.83009819
   7.80212749  1.93263962  3.89117338
   7.74812017  5.79587412  7.72115667
   7.72181470  9.66418305 11.52406457
   1.89976593 11.56673275  0.02526373
   1.91787373  3.85568328  3.92130657
   1.95468186  3.97426214  7.74117802
   1.91115751  7.61012880  7.72817259
   5.77529956 11.51076635  3.90326642
   5.80391714  3.91066408  0.00913519
   5.77567058  7.63278294  0.02500657
   5.79737595  7.81547083  3.82809250
   9.63142289 11.53216784  7.77779773
   0.10575744 11.55174389  5.80545846
  11.50805032  3.91487722  5.81964213
  11.56676552  7.74583719  9.70307618
   3.75141915 11.55254373  5.82155130
   3.83938182  3.76982351  1.93294262
   3.86804057  7.75862429  5.81349777
   7.74144015 11.52681112  1.94166989
   7.74469647  3.81642462  9.67113124
   7.80637513  7.71567562  1.96086245
  11.55911365  1.91146543 11.60673062
  11.56734300  5.83011227  3.78332219
  11.40572339  5.79157606  7.78802855
  11.48290632  9.65159346  0.08999961
  -0.00386859  9.62298673  3.82937557
   0.04789312  9.64959509  7.72269170
   3.86789856  1.91291851 11.54974041
   3.88875544  1.91525560  3.90554859
   3.83736784  1.92680443  7.77711256
   4.02408873  5.77665092  7.78736311
   3.90750004  9.69284923 11.57659626
   3.70602333  9.65929707  3.78552767
   7.74925420  1.91972713  0.05826378
   7.73048602  1.92292825  7.64558037
   7.87224534  5.78840356 11.58881119
   7.70640198  5.77433192  3.96689018
   7.83780983  9.63691610  3.97561660
   7.63919612  9.64114905  7.83156769
   1.93106740  0.01719926  3.69053441
   1.93156995 11.57403397  7.92573379
   1.90345231  3.70296960 11.52894651
   1.90034820  7.91757368  0.04249319
   1.86041236  7.72706127  3.86158172
   5.77272798  0.05321048 11.61108102
   5.82329905  0.06206450  7.73109816
   5.82666861  3.83208159  3.90025382
   5.79361953  3.79234114  7.72786897
   5.82545036  7.71712320  7.82167991
   9.69279034  0.04213935 11.52974991
   9.64743699 11.46335464  3.94371427
   9.67010770  3.82196390  0.06300884
   9.65094699  3.99019988  3.80548875
   9.63965867  3.80451666  7.76743616
   9.66970115  7.69874731  0.03165810
   9.68071134  7.69082208  3.96207552
   9.65522876  7.82508263  7.67515769
  11.47230411 11.53016318  1.92825314
  11.57587220 11.47991416  9.72597789
   0.00763465  3.85055745  1.90937811
  11.51857645  3.88682511  9.70465510
  11.53299382  7.75608919  1.97187704
  11.57008373  7.69298527  5.77849266
   3.89322828  0.03566344  1.90417681
   3.92821626  0.05639029  9.70000985
   3.95170869  3.82223053  5.83383178
   3.88711608  3.82619215  9.67426192
   3.74310054  7.82394667  1.93486606
   3.82296892  7.70968557  9.68770684
   7.71438915 11.52198415  5.83895094
   7.67248289  0.12435375  9.67419057
   7.74229334  3.91062168  1.95277820
   7.76772113  3.85461429  5.82175438
   7.72456198  7.77281639  5.83642945
   7.83071446  7.67522391  9.67379141
 


--------------------------------------------------------------------------------------------------------


 k-point   1 :   0.0000 0.0000 0.0000  plane waves:   65421
 k-point   2 :   0.3333 0.0000-0.0000  plane waves:   65460
 k-point   3 :  -0.0000 0.3333-0.0000  plane waves:   65463
 k-point   4 :   0.3333 0.3333-0.0000  plane waves:   65524
 k-point   5 :  -0.3333 0.3333 0.0000  plane waves:   65483
 k-point   6 :  -0.0000-0.0000 0.3333  plane waves:   65479
 k-point   7 :   0.3333-0.0000 0.3333  plane waves:   65507
 k-point   8 :  -0.3333-0.0000 0.3333  plane waves:   65508
 k-point   9 :  -0.0000 0.3333 0.3333  plane waves:   65496
 k-point  10 :   0.3333 0.3333 0.3333  plane waves:   65552
 k-point  11 :  -0.3333 0.3333 0.3333  plane waves:   65545
 k-point  12 :   0.0000-0.3333 0.3333  plane waves:   65515
 k-point  13 :   0.3333-0.3333 0.3333  plane waves:   65528
 k-point  14 :  -0.3333-0.3333 0.3333  plane waves:   65578

 maximum and minimum number of plane-waves per node :      8263     8134

 maximum number of plane-waves:     65578
 maximum index in each direction: 
   IXMAX=   25   IYMAX=   25   IZMAX=   25
   IXMIN=  -25   IYMIN=  -25   IZMIN=  -25


 real space projection operators:
  total allocation   :      54035.23 KBytes
  max/ min on nodes  :       7367.92       6131.61


 parallel 3D FFT for wavefunctions:
    minimum data exchange during FFTs selected (reduces bandwidth)
 parallel 3D FFT for charge:
    minimum data exchange during FFTs selected (reduces bandwidth)


 total amount of memory used by VASP MPI-rank0   298667. kBytes
=======================================================================

   base      :      30000. kBytes
   nonlr-proj:      25301. kBytes
   fftplans  :      18873. kBytes
   grid      :      21088. kBytes
   one-center:        435. kBytes
   wavefun   :     202970. kBytes
 
     INWAV:  cpu time     34.7437: real time     34.8524
 Broyden mixing: mesh for mixing (old mesh)
   NGX = 49   NGY = 49   NGZ = 51
  (NGX  =200   NGY  =200   NGZ  =200)
  gives a total of 122451 points

 charge density for first step will be calculated from the start-wavefunctions


--------------------------------------------------------------------------------------------------------


 Maximum index for non-local projection operator         1340
 Maximum index for augmentation-charges         4048 (set IRDMAX)


--------------------------------------------------------------------------------------------------------


 initial charge from wavefunction
 First call to EWALD:  gamma=   0.153
 Maximum number of real-space cells 3x 3x 3
 Maximum number of reciprocal cells 3x 3x 3

    FEWALD:  cpu time      0.0046: real time      0.0046


--------------------------------------- Iteration      1(   1)  ---------------------------------------


    POTLOK:  cpu time      0.1623: real time      0.1744
    SETDIJ:  cpu time      0.8880: real time      0.8927
     EDDAV:  cpu time    111.6913: real time    112.0145
       DOS:  cpu time      0.0045: real time      0.0049
    CHARGE:  cpu time      3.9363: real time      3.9464
    MIXING:  cpu time      0.0053: real time      0.0056
    --------------------------------------------
      LOOP:  cpu time    116.6877: real time    117.0386

 eigenvalue-minimisations  : 40760
 total energy-change (2. order) :-0.7208769E+03  (-0.9161601E-06)
 number of electron     810.0000011 magnetization      -0.0000000
 augmentation part      209.1375070 magnetization       0.0000000

 Broyden mixing:
  rms(total) = 0.80014E-03    rms(broyden)= 0.79688E-03
  rms(prec ) = 0.10526E-02
  weight for this iteration     100.00

 Free energy of the ion-electron system (eV)
  ---------------------------------------------------
  alpha Z        PSCENC =      2560.16486327
  Ewald energy   TEWEN  =    -43270.35892958
  -Hartree energ DENC   =    -27746.75789776
  -exchange      EXHF   =         0.00000000
  -V(xc)+E(xc)   XCENC  =      3779.47494715
  PAW double counting   =     60878.02432757   -61293.26540006
  entropy T*S    EENTRO =        -0.00000000
  eigenvalues    EBANDS =    -10898.60089741
  atomic energy  EATOM  =     75270.44210491
  Solvation  Ediel_sol  =         0.00000000
  ---------------------------------------------------
  free energy    TOTEN  =      -720.87688191 eV

  energy without entropy =     -720.87688191  energy(sigma->0) =     -720.87688191


--------------------------------------------------------------------------------------------------------




--------------------------------------- Iteration      1(   2)  ---------------------------------------


    POTLOK:  cpu time      0.2368: real time      0.2430
    SETDIJ:  cpu time      0.8965: real time      0.8987
     EDDAV:  cpu time    100.4253: real time    100.6805
       DOS:  cpu time      0.0027: real time      0.0027
    CHARGE:  cpu time      3.9769: real time      3.9869
    MIXING:  cpu time      0.0072: real time      0.0079
    --------------------------------------------
      LOOP:  cpu time    105.5453: real time    105.8196

 eigenvalue-minimisations  : 35690
 total energy-change (2. order) : 0.1378881E-05  (-0.5502019E-06)
 number of electron     810.0000011 magnetization      -0.0000000
 augmentation part      209.1377910 magnetization      -0.0000000

 Broyden mixing:
  rms(total) = 0.37350E-03    rms(broyden)= 0.36658E-03
  rms(prec ) = 0.50273E-03
  weight for this iteration     100.00

 eigenvalues of (default mixing * dielectric matrix)
  average eigenvalue GAMMA=   0.7434
  0.7434

 Free energy of the ion-electron system (eV)
  ---------------------------------------------------
  alpha Z        PSCENC =      2560.16486327
  Ewald energy   TEWEN  =    -43270.35892958
  -Hartree energ DENC   =    -27746.80637333
  -exchange      EXHF   =         0.00000000
  -V(xc)+E(xc)   XCENC  =      3779.47900417
  PAW double counting   =     60878.06640797   -61293.31360117
  entropy T*S    EENTRO =        -0.00000000
  eigenvalues    EBANDS =    -10898.55035678
  atomic energy  EATOM  =     75270.44210491
  Solvation  Ediel_sol  =         0.00000000
  ---------------------------------------------------
  free energy    TOTEN  =      -720.87688054 eV

  energy without entropy =     -720.87688054  energy(sigma->0) =     -720.87688054


--------------------------------------------------------------------------------------------------------




--------------------------------------- Iteration      1(   3)  ---------------------------------------


    POTLOK:  cpu time      0.1715: real time      0.1766
    SETDIJ:  cpu time      0.9053: real time      0.9076
     EDDAV:  cpu time     61.4967: real time     61.6529
       DOS:  cpu time      0.0027: real time      0.0027
    --------------------------------------------
      LOOP:  cpu time     62.5761: real time     62.7399

 eigenvalue-minimisations  : 17480
 total energy-change (2. order) : 0.2840097E-06  (-0.9579437E-07)
 number of electron     810.0000011 magnetization      -0.0000000
 augmentation part      209.1377910 magnetization      -0.0000000

 Free energy of the ion-electron system (eV)
  ---------------------------------------------------
  alpha Z        PSCENC =      2560.16486327
  Ewald energy   TEWEN  =    -43270.35892958
  -Hartree energ DENC   =    -27746.81244496
  -exchange      EXHF   =         0.00000000
  -V(xc)+E(xc)   XCENC  =      3779.47894600
  PAW double counting   =     60878.06396912   -61293.31058953
  entropy T*S    EENTRO =        -0.00000000
  eigenvalues    EBANDS =    -10898.54479948
  atomic energy  EATOM  =     75270.44210491
  Solvation  Ediel_sol  =         0.00000000
  ---------------------------------------------------
  free energy    TOTEN  =      -720.87688025 eV

  energy without entropy =     -720.87688025  energy(sigma->0) =     -720.87688025


--------------------------------------------------------------------------------------------------------




 average (electrostatic) potential at core
  the test charge radii are     1.0397  0.7215  0.7167
  (the norm of the test charge is              1.0000)
       1 -59.7252       2 -58.5881       3 -58.5018       4 -59.4155       5 -58.2119
       6 -58.4031       7 -59.0117       8 -60.3341       9 -58.7820      10 -59.7041
      11 -58.7088      12 -58.6540      13 -58.2764      14 -58.1565      15 -59.1011
      16 -58.5645      17 -58.1927      18 -58.3636      19 -58.6806      20 -58.5720
      21 -59.1990      22 -58.7328      23 -59.1623      24 -58.9552      25 -58.4138
      26 -58.5118      27 -59.3453      28 -74.0478      29 -73.9435      30 -74.5515
      31 -73.9610      32 -73.7144      33 -73.9765      34 -74.2451      35 -74.4468
      36 -73.9901      37 -74.7361      38 -73.7772      39 -74.2219      40 -74.1088
      41 -74.0160      42 -74.0615      43 -73.9558      44 -74.0082      45 -74.2880
      46 -74.0539      47 -73.8925      48 -74.3897      49 -74.1037      50 -73.7774
      51 -73.7941      52 -74.0614      53 -74.2149      54 -73.9519      55 -79.3324
      56 -79.4907      57 -78.9031      58 -79.3874      59 -79.4931      60 -78.8870
      61 -79.1769      62 -78.7202      63 -78.9178      64 -78.9441      65 -79.1604
      66 -78.7176      67 -78.8589      68 -79.1494      69 -78.8532      70 -78.8179
      71 -78.8718      72 -79.1078      73 -78.8223      74 -78.9313      75 -79.1119
      76 -78.9711      77 -79.4784      78 -79.1114      79 -78.8745      80 -78.8916
      81 -78.9476      82 -79.0867      83 -79.1339      84 -78.8159      85 -79.0838
      86 -78.9247      87 -79.0040      88 -78.9654      89 -79.4869      90 -79.0828
      91 -79.2199      92 -79.2062      93 -79.0654      94 -79.0444      95 -79.5373
      96 -79.5522      97 -79.1736      98 -79.1816      99 -78.8378     100 -78.8579
     101 -78.6821     102 -78.6837     103 -78.9809     104 -79.0220     105 -79.0297
     106 -79.0109     107 -79.0313     108 -79.0169
 
 
 
 E-fermi :  -0.6424     XC(G=0):  -8.9875     alpha+bet : -7.6548

 Fermi energy:        -0.6424338772

 spin component 1

 k-point     1 :       0.0000    0.0000    0.0000
  band No.  band energies     occupation 
      1     -36.2000      1.00000
      2     -36.1987      1.00000
      3     -36.1984      1.00000
      4     -35.6454      1.00000
      5     -35.6346      1.00000
      6     -35.6111      1.00000
      7     -35.6071      1.00000
      8     -35.5351      1.00000
      9     -35.4762      1.00000
     10     -35.3503      1.00000
     11     -35.3452      1.00000
     12     -35.2888      1.00000
     13     -35.2748      1.00000
     14     -35.2476      1.00000
     15     -35.1777      1.00000
     16     -35.1519      1.00000
     17     -35.1429      1.00000
     18     -35.1120      1.00000
     19     -35.1061      1.00000
     20     -35.0506      1.00000
     21     -35.0415      1.00000
     22     -35.0106      1.00000
     23     -34.9864      1.00000
     24     -34.9708      1.00000
     25     -34.9458      1.00000
     26     -34.9284      1.00000
     27     -34.9108      1.00000
     28     -34.9003      1.00000
     29     -34.8504      1.00000
     30     -34.8124      1.00000
     31     -34.7801      1.00000
     32     -34.7228      1.00000
     33     -34.7088      1.00000
     34     -34.6821      1.00000
     35     -34.6804      1.00000
     36     -34.6575      1.00000
     37     -34.6509      1.00000
     38     -34.6360      1.00000
     39     -34.6221      1.00000
     40     -34.6020      1.00000
     41     -34.5978      1.00000
     42     -34.5901      1.00000
     43     -34.5741      1.00000
     44     -34.5512      1.00000
     45     -34.5505      1.00000
     46     -34.5484      1.00000
     47     -34.5313      1.00000
     48     -34.5305      1.00000
     49     -34.5241      1.00000
     50     -34.4998      1.00000
     51     -34.4851      1.00000
     52     -34.4814      1.00000
     53     -34.4633      1.00000
     54     -34.4526      1.00000
     55     -34.4480      1.00000
     56     -34.4405      1.00000
     57     -34.4402      1.00000
     58     -34.4215      1.00000
     59     -34.4080      1.00000
     60     -34.3976      1.00000
     61     -34.3519      1.00000
     62     -34.3452      1.00000
     63     -34.3218      1.00000
     64     -34.3147      1.00000
     65     -34.3059      1.00000
     66     -34.3038      1.00000
     67     -34.2972      1.00000
     68     -34.2725      1.00000
     69     -34.2553      1.00000
     70     -34.2409      1.00000
     71     -34.2082      1.00000
     72     -34.1989      1.00000
     73     -34.1936      1.00000
     74     -34.1696      1.00000
     75     -34.1556      1.00000
     76     -34.1442      1.00000
     77     -34.1269      1.00000
     78     -34.1025      1.00000
     79     -34.0905      1.00000
     80     -34.0590      1.00000
     81     -34.0476      1.00000
     82     -23.5235      1.00000
     83     -23.2691      1.00000
     84     -23.2304      1.00000
     85     -23.1961      1.00000
     86     -23.1297      1.00000
     87     -23.0730      1.00000
     88     -23.0459      1.00000
     89     -23.0372      1.00000
     90     -22.9653      1.00000
     91     -22.9523      1.00000
     92     -22.9437      1.00000
     93     -22.9234      1.00000
     94     -22.9082      1.00000
     95     -22.8952      1.00000
     96     -22.8790      1.00000
     97     -22.8438      1.00000
     98     -22.8165      1.00000
     99     -22.8092      1.00000
    100     -22.7718      1.00000
    101     -22.7655      1.00000
    102     -22.7637      1.00000
    103     -22.7393      1.00000
    104     -22.7237      1.00000
    105     -22.6962      1.00000
    106     -22.6690      1.00000
    107     -22.6632      1.00000
    108     -22.6461      1.00000
    109     -22.6440      1.00000
    110     -22.6227      1.00000
    111     -22.6110      1.00000
    112     -22.6043      1.00000
    113     -22.5996      1.00000
    114     -22.5755      1.00000
    115     -22.5532      1.00000
    116     -22.5446      1.00000
    117     -22.5313      1.00000
    118     -22.5269      1.00000
    119     -22.5208      1.00000
    120     -22.5074      1.00000
    121     -22.4746      1.00000
    122     -22.4662      1.00000
    123     -22.4612      1.00000
    124     -22.4509      1.00000
    125     -22.4262      1.00000
    126     -22.4187      1.00000
    127     -22.4087      1.00000
    128     -22.3790      1.00000
    129     -22.3753      1.00000
    130     -22.3594      1.00000
    131     -22.3484      1.00000
    132     -22.3238      1.00000
    133     -22.2979      1.00000
    134     -22.2376      1.00000
    135     -22.1678      1.00000
    136     -17.2106      1.00000
    137     -17.0457      1.00000
    138     -16.9307      1.00000
    139     -16.8477      1.00000
    140     -16.7869      1.00000
    141     -16.7584      1.00000
    142     -16.7085      1.00000
    143     -16.7017      1.00000
    144     -16.6602      1.00000
    145     -16.6422      1.00000
    146     -16.6190      1.00000
    147     -16.5952      1.00000
    148     -16.5748      1.00000
    149     -16.5406      1.00000
    150     -16.5094      1.00000
    151     -16.4878      1.00000
    152     -16.4442      1.00000
    153     -16.4188      1.00000
    154     -16.4118      1.00000
    155     -16.3868      1.00000
    156     -16.3674      1.00000
    157     -16.3409      1.00000
    158     -16.3244      1.00000
    159     -16.2948      1.00000
    160     -16.2275      1.00000
    161     -16.1547      1.00000
    162     -16.1066      1.00000
    163      -6.8636      1.00000
    164      -6.8168      1.00000
    165      -6.7588      1.00000
    166      -6.6352      1.00000
    167      -6.5066      1.00000
    168      -6.4736      1.00000
    169      -6.4480      1.00000
    170      -6.4393      1.00000
    171      -6.3847      1.00000
    172      -6.3765      1.00000
    173      -6.3356      1.00000
    174      -6.2927      1.00000
    175      -6.2721      1.00000
    176      -6.2295      1.00000
    177      -6.2198      1.00000
    178      -6.1744      1.00000
    179      -6.1641      1.00000
    180      -6.1443      1.00000
    181      -6.1274      1.00000
    182      -6.1082      1.00000
    183      -6.0652      1.00000
    184      -6.0514      1.00000
    185      -6.0413      1.00000
    186      -6.0148      1.00000
    187      -5.9959      1.00000
    188      -5.9703      1.00000
    189      -5.9541      1.00000
    190      -5.9409      1.00000
    191      -5.8818      1.00000
    192      -5.8600      1.00000
    193      -5.8469      1.00000
    194      -5.8420      1.00000
    195      -5.8122      1.00000
    196      -5.7730      1.00000
    197      -5.7640      1.00000
    198      -5.7122      1.00000
    199      -5.6903      1.00000
    200      -5.6709      1.00000
    201      -5.6679      1.00000
    202      -5.6478      1.00000
    203      -5.6391      1.00000
    204      -5.5930      1.00000
    205      -5.5870      1.00000
    206      -5.5714      1.00000
    207      -5.5663      1.00000
    208      -5.5500      1.00000
    209      -5.5306      1.00000
    210      -5.5092      1.00000
    211      -5.4830      1.00000
    212      -5.4694      1.00000
    213      -5.4465      1.00000
    214      -5.4354      1.00000
    215      -5.4231      1.00000
    216      -5.4209      1.00000
    217      -5.3823      1.00000
    218      -5.3443      1.00000
    219      -5.2547      1.00000
    220      -5.2347      1.00000
    221      -5.1870      1.00000
    222      -5.1554      1.00000
    223      -5.1175      1.00000
    224      -5.0925      1.00000
    225      -5.0812      1.00000
    226      -5.0525      1.00000
    227      -5.0233      1.00000
    228      -4.9924      1.00000
    229      -4.9825      1.00000
    230      -4.9705      1.00000
    231      -4.9589      1.00000
    232      -4.9497      1.00000
    233      -4.9305      1.00000
    234      -4.8858      1.00000
    235      -4.8471      1.00000
    236      -4.8283      1.00000
    237      -4.7990      1.00000
    238      -4.7683      1.00000
    239      -4.7539      1.00000
    240      -4.7388      1.00000
    241      -4.7277      1.00000
    242      -4.7187      1.00000
    243      -4.6933      1.00000
    244      -4.6907      1.00000
    245      -4.6657      1.00000
    246      -4.6278      1.00000
    247      -4.5953      1.00000
    248      -4.5893      1.00000
    249      -4.5626      1.00000
    250      -4.5324      1.00000
    251      -4.5195      1.00000
    252      -4.4916      1.00000
    253      -4.4839      1.00000
    254      -4.4682      1.00000
    255      -4.4550      1.00000
    256      -4.3404      1.00000
    257      -4.3091      1.00000
    258      -4.2675      1.00000
    259      -4.2411      1.00000
    260      -4.2325      1.00000
    261      -4.2172      1.00000
    262      -4.2049      1.00000
    263      -4.1842      1.00000
    264      -4.1648      1.00000
    265      -4.1543      1.00000
    266      -4.1188      1.00000
    267      -4.1051      1.00000
    268      -4.0932      1.00000
    269      -4.0789      1.00000
    270      -4.0710      1.00000
    271      -4.0638      1.00000
    272      -4.0382      1.00000
    273      -4.0053      1.00000
    274      -3.9976      1.00000
    275      -3.9840      1.00000
    276      -3.9676      1.00000
    277      -3.9432      1.00000
    278      -3.9372      1.00000
    279      -3.9236      1.00000
    280      -3.9107      1.00000
    281      -3.9027      1.00000
    282      -3.8985      1.00000
    283      -3.8921      1.00000
    284      -3.8782      1.00000
    285      -3.8712      1.00000
    286      -3.8572      1.00000
    287      -3.8273      1.00000
    288      -3.8190      1.00000
    289      -3.8086      1.00000
    290      -3.8009      1.00000
    291      -3.7948      1.00000
    292      -3.7793      1.00000
    293      -3.7484      1.00000
    294      -3.7403      1.00000
    295      -3.7091      1.00000
    296      -3.6915      1.00000
    297      -3.6817      1.00000
    298      -3.6658      1.00000
    299      -3.6632      1.00000
    300      -3.6511      1.00000
    301      -3.6447      1.00000
    302      -3.6259      1.00000
    303      -3.6136      1.00000
    304      -3.5843      1.00000
    305      -3.5746      1.00000
    306      -3.5680      1.00000
    307      -3.5538      1.00000
    308      -3.5493      1.00000
    309      -3.5326      1.00000
    310      -3.5264      1.00000
    311      -3.5183      1.00000
    312      -3.4977      1.00000
    313      -3.4903      1.00000
    314      -3.4808      1.00000
    315      -3.4548      1.00000
    316      -3.4426      1.00000
    317      -3.4371      1.00000
    318      -3.4278      1.00000
    319      -3.4187      1.00000
    320      -3.4049      1.00000
    321      -3.3997      1.00000
    322      -3.3786      1.00000
    323      -3.3639      1.00000
    324      -3.3613      1.00000
    325      -3.3381      1.00000
    326      -3.3187      1.00000
    327      -3.3152      1.00000
    328      -3.3031      1.00000
    329      -3.2909      1.00000
    330      -3.2713      1.00000
    331      -3.2562      1.00000
    332      -3.2391      1.00000
    333      -3.2208      1.00000
    334      -3.2181      1.00000
    335      -3.2165      1.00000
    336      -3.1956      1.00000
    337      -3.1945      1.00000
    338      -3.1750      1.00000
    339      -3.1594      1.00000
    340      -3.1446      1.00000
    341      -3.1405      1.00000
    342      -3.1254      1.00000
    343      -3.1132      1.00000
    344      -3.1066      1.00000
    345      -3.0953      1.00000
    346      -3.0768      1.00000
    347      -3.0589      1.00000
    348      -3.0559      1.00000
    349      -3.0335      1.00000
    350      -2.9993      1.00000
    351      -2.9485      1.00000
    352      -2.8774      1.00000
    353      -2.7282      1.00000
    354      -2.6956      1.00000
    355      -2.6757      1.00000
    356      -2.6219      1.00000
    357      -2.5951      1.00000
    358      -2.5903      1.00000
    359      -2.5844      1.00000
    360      -2.5749      1.00000
    361      -2.5309      1.00000
    362      -2.5038      1.00000
    363      -2.4902      1.00000
    364      -2.4776      1.00000
    365      -2.4485      1.00000
    366      -2.4079      1.00000
    367      -2.3637      1.00000
    368      -2.3329      1.00000
    369      -2.2700      1.00000
    370      -2.2338      1.00000
    371      -2.2185      1.00000
    372      -2.2089      1.00000
    373      -2.1931      1.00000
    374      -2.1509      1.00000
    375      -2.1338      1.00000
    376      -2.1253      1.00000
    377      -2.0890      1.00000
    378      -2.0763      1.00000
    379      -2.0064      1.00000
    380      -1.9997      1.00000
    381      -1.9667      1.00000
    382      -1.9302      1.00000
    383      -1.8145      1.00000
    384      -1.7331      1.00000
    385      -1.7125      1.00000
    386      -1.6791      1.00000
    387      -1.6560      1.00000
    388      -1.6479      1.00000
    389      -1.5947      1.00000
    390      -1.5574      1.00000
    391      -1.5357      1.00000
    392      -1.4823      1.00000
    393      -1.4649      1.00000
    394      -1.3049      1.00000
    395      -1.2902      1.00000
    396      -1.2371      1.00000
    397      -1.1844      1.00000
    398      -1.1133      1.00000
    399      -1.0741      1.00000
    400      -1.0490      1.00000
    401      -0.9654      1.00000
    402      -0.9379      1.00000
    403      -0.9113      1.00000
    404      -0.7995      1.00000
    405      -0.7130      1.00000
    406       1.6654      0.00000
    407       1.7114      0.00000
    408       1.7411      0.00000
    409       1.7612      0.00000
    410       1.7668      0.00000
    411       1.9752      0.00000
    412       1.9961      0.00000
    413       2.0507      0.00000
    414       2.0851      0.00000
    415       2.1163      0.00000
    416       2.2503      0.00000
    417       2.2688      0.00000
    418       2.3252      0.00000
    419       2.3482      0.00000
    420       2.3799      0.00000
    421       2.4963      0.00000
    422       2.5188      0.00000
    423       2.5282      0.00000
    424       2.5492      0.00000
    425       2.5788      0.00000
    426       2.6333      0.00000
    427       2.6394      0.00000
    428       2.6507      0.00000
    429       2.6634      0.00000
    430       2.7118      0.00000
    431       2.7278      0.00000
    432       2.7480      0.00000
    433       2.7939      0.00000
    434       2.7970      0.00000
    435       2.8221      0.00000
    436       2.8328      0.00000
    437       2.8497      0.00000
    438       2.8599      0.00000
    439       2.8879      0.00000
    440       2.8933      0.00000
    441       2.9114      0.00000
    442       2.9224      0.00000
    443       2.9271      0.00000
    444       2.9645      0.00000
    445       2.9664      0.00000
    446       2.9769      0.00000
    447       2.9904      0.00000
    448       3.0164      0.00000
    449       3.0432      0.00000
    450       3.0553      0.00000
    451       3.0838      0.00000
    452       3.0974      0.00000
    453       3.1586      0.00000
    454       3.1664      0.00000
    455       3.1954      0.00000
    456       3.2232      0.00000
    457       3.2369      0.00000
    458       3.2748      0.00000
    459       3.3193      0.00000
    460       3.3307      0.00000
    461       3.3435      0.00000
    462       3.3615      0.00000
    463       3.3764      0.00000
    464       3.4027      0.00000
    465       3.4144      0.00000
    466       3.4369      0.00000
    467       3.4616      0.00000
    468       3.4736      0.00000
    469       3.5097      0.00000
    470       3.5103      0.00000
    471       3.5435      0.00000
[...]
      3.71571      3.86178      7.75175         0.003954      0.001002     -0.001470
      3.95935      7.57158      0.01197        -0.000275     -0.000600     -0.000719
      3.96760      7.61580      3.97119         0.001023     -0.002889      0.000925
      3.77462      7.81546      7.61878         0.001340     -0.000256      0.001828
      7.70709     11.44118      0.13032         0.001020     -0.000100      0.003527
      7.62449      0.04272      3.76242         0.001972      0.001025      0.000546
      7.87052     11.56596      7.75954         0.003638     -0.003584      0.002422
      7.58996      3.86150     11.51993        -0.002848      0.000325      0.003032
      7.74420      3.70095      3.89036        -0.002722     -0.001835     -0.000656
      7.71397      3.93152      7.88443         0.000194     -0.002392      0.006374
      7.60548      7.80808      0.13306        -0.000359      0.000313     -0.002704
      7.57397      7.71063      3.75520         0.000785      0.000960     -0.004665
      7.74270      7.57320      7.75376        -0.000476     -0.002991      0.000213
     11.48921      1.90697      3.83813        -0.001071      0.003583     -0.000186
      0.03438      1.93414      7.78919         0.003413      0.002409     -0.003040
      0.08669      5.79277      0.03887        -0.004157     -0.001459     -0.000857
      3.67767      5.79310      0.03048        -0.003600     -0.000351     -0.001239
      3.87834      5.80345      3.84298        -0.000452      0.000696      0.000016
      3.88466      9.66012      7.83010        -0.002160      0.001036     -0.002395
      7.80213      1.93264      3.89117        -0.003775      0.003921     -0.000883
      7.74812      5.79587      7.72116         0.002998     -0.003788      0.002270
      7.72181      9.66418     11.52406        -0.003939      0.000438      0.003721
      1.89977     11.56673      0.02526         0.001395     -0.000822     -0.000445
      1.91787      3.85568      3.92131        -0.001320     -0.000918      0.001294
      1.95468      3.97426      7.74118        -0.001132     -0.000078      0.003151
      1.91116      7.61013      7.72817         0.000518     -0.001051      0.001668
      5.77530     11.51077      3.90327        -0.004592      0.001118     -0.001104
      5.80392      3.91066      0.00914        -0.006937      0.001991     -0.003063
      5.77567      7.63278      0.02501        -0.002698     -0.002545     -0.000800
      5.79738      7.81547      3.82809        -0.000495      0.000332     -0.003718
      9.63142     11.53217      7.77780        -0.000265      0.000483     -0.000714
      0.10576     11.55174      5.80546        -0.001428      0.001860     -0.001734
     11.50805      3.91488      5.81964        -0.000573      0.001969      0.004275
     11.56677      7.74584      9.70308        -0.000672      0.002059     -0.004599
      3.75142     11.55254      5.82155         0.002880      0.002122     -0.002520
      3.83938      3.76982      1.93294        -0.002980      0.000849     -0.002317
      3.86804      7.75862      5.81350         0.001727     -0.002265     -0.001394
      7.74144     11.52681      1.94167         0.001938     -0.001124      0.002862
      7.74470      3.81642      9.67113         0.000346     -0.002205     -0.001094
      7.80638      7.71568      1.96086         0.001636     -0.000112      0.000143
     11.55911      1.91147     11.60673         0.001711      0.002387     -0.006922
     11.56734      5.83011      3.78332        -0.000548      0.000102      0.001671
     11.40572      5.79158      7.78803         0.002106     -0.001069      0.001430
     11.48291      9.65159      0.09000         0.001795      0.003438     -0.001482
     -0.00387      9.62299      3.82938         0.003485     -0.000470      0.003833
      0.04789      9.64960      7.72269         0.001565     -0.000867     -0.004088
      3.86790      1.91292     11.54974        -0.000856     -0.000794      0.000063
      3.88876      1.91526      3.90555         0.000494      0.000091      0.001745
      3.83737      1.92680      7.77711        -0.000435      0.000327     -0.003565
      4.02409      5.77665      7.78736         0.001056     -0.000295     -0.003897
      3.90750      9.69285     11.57660         0.002907     -0.000748      0.005945
      3.70602      9.65930      3.78553         0.002599      0.000103      0.005844
      7.74925      1.91973      0.05826        -0.005862     -0.000058      0.005169
      7.73049      1.92293      7.64558        -0.000962     -0.002996      0.006676
      7.87225      5.78840     11.58881        -0.003762      0.000053     -0.000110
      7.70640      5.77433      3.96689        -0.005920     -0.000883     -0.007392
      7.83781      9.63692      3.97562         0.003362     -0.001118      0.000200
      7.63920      9.64115      7.83157         0.005221     -0.002407     -0.000053
      1.93107      0.01720      3.69053         0.001985      0.004774      0.003364
      1.93157     11.57403      7.92573         0.000604     -0.001069     -0.005121
      1.90345      3.70297     11.52895        -0.000289      0.003652     -0.004558
      1.90035      7.91757      0.04249         0.001452      0.000421     -0.002563
      1.86041      7.72706      3.86158         0.001104     -0.001459     -0.000268
      5.77273      0.05321     11.61108         0.000052      0.003364     -0.001357
      5.82330      0.06206      7.73110         0.001347     -0.005312      0.001447
      5.82667      3.83208      3.90025        -0.002888     -0.001996     -0.000293
      5.79362      3.79234      7.72787         0.001691     -0.001434     -0.000873
      5.82545      7.71712      7.82168        -0.000143     -0.000435      0.006647
      9.69279      0.04214     11.52975         0.002214     -0.001734      0.007048
      9.64744     11.46335      3.94371         0.000105      0.005160      0.002202
      9.67011      3.82196      0.06301         0.000241      0.001423      0.000946
      9.65095      3.99020      3.80549        -0.002237      0.000001     -0.000951
      9.63966      3.80452      7.76744         0.002246     -0.003883      0.004513
      9.66970      7.69875      0.03166        -0.001311      0.002090     -0.005017
      9.68071      7.69082      3.96208         0.000189     -0.004712      0.000611
      9.65523      7.82508      7.67516        -0.000935     -0.000437     -0.000881
     11.47230     11.53016      1.92825         0.004378      0.004025     -0.000898
     11.57587     11.47991      9.72598         0.000338      0.004957     -0.001039
      0.00763      3.85056      1.90938         0.005317     -0.001023     -0.001312
     11.51858      3.88683      9.70466         0.007650      0.000773     -0.000290
     11.53299      7.75609      1.97188         0.004006      0.001241      0.001139
     11.57008      7.69299      5.77849        -0.000199     -0.005207     -0.000125
      3.89323      0.03566      1.90418        -0.002145     -0.004448      0.002038
      3.92822      0.05639      9.70001        -0.003378     -0.003115      0.000159
      3.95171      3.82223      5.83383        -0.001232      0.007036     -0.001037
      3.88712      3.82619      9.67426         0.004433      0.002105     -0.002090
      3.74310      7.82395      1.93487         0.002769     -0.002250      0.001012
      3.82297      7.70969      9.68771         0.002213     -0.000877      0.000387
      7.71439     11.52198      5.83895        -0.000179      0.000007      0.002028
      7.67248      0.12435      9.67419         0.005099     -0.005261      0.001482
      7.74229      3.91062      1.95278        -0.004738      0.002564      0.001121
      7.76772      3.85461      5.82175        -0.002752      0.000273      0.001085
      7.72456      7.77282      5.83643        -0.008410     -0.004740     -0.001125
      7.83071      7.67522      9.67379        -0.007114      0.000269     -0.001015
 -----------------------------------------------------------------------------------
    total drift:                               -0.007327      0.000836      0.004373


--------------------------------------------------------------------------------------------------------



  FREE ENERGIE OF THE ION-ELECTRON SYSTEM (eV)
  ---------------------------------------------------
  free  energy   TOTEN  =      -720.87688025 eV

  energy  without entropy=     -720.87688025  energy(sigma->0) =     -720.87688025
 


--------------------------------------------------------------------------------------------------------


    POTLOK:  cpu time      1.0485: real time      1.0511


--------------------------------------------------------------------------------------------------------


 Quasi-Newton relaxation of ions (Broydens 2nd method)
  g(Force)  = 0.113E-03   g(Stress)= 0.109E-03

 Reset! Starting new Quasi-Newton update for ions 


--------------------------------------------------------------------------------------------------------


  
 reached required accuracy - stopping structural energy minimisation
 writing wavefunctions
     LOOP+:  cpu time    431.0349: real time    441.4295
    4ORBIT:  cpu time      0.0000: real time      0.0000



 total charge

# of ion       s       p       d       tot
------------------------------------------
    1        0.316   6.470   1.714   8.500
    2        0.324   6.453   1.829   8.607
    3        0.326   6.455   1.799   8.580
    4        0.318   6.464   1.750   8.531
    5        0.332   6.459   1.846   8.636
    6        0.327   6.457   1.808   8.593
    7        0.325   6.464   1.796   8.585
    8        0.317   6.490   1.682   8.490
    9        0.323   6.458   1.810   8.591
   10        0.317   6.473   1.706   8.496
   11        0.321   6.453   1.781   8.556
   12        0.321   6.454   1.803   8.578
   13        0.329   6.456   1.827   8.612
   14        0.329   6.455   1.816   8.599
   15        0.315   6.458   1.760   8.533
   16        0.322   6.451   1.803   8.576
   17        0.330   6.458   1.825   8.613
   18        0.327   6.456   1.803   8.585
   19        0.318   6.451   1.800   8.570
   20        0.324   6.456   1.777   8.557
   21        0.313   6.458   1.762   8.533
   22        0.321   6.456   1.796   8.573
   23        0.314   6.458   1.755   8.526
   24        0.322   6.464   1.775   8.561
   25        0.326   6.454   1.797   8.577
   26        0.325   6.455   1.834   8.615
   27        0.316   6.463   1.749   8.528
   28        1.570   3.480   0.000   5.051
   29        1.569   3.473   0.000   5.042
   30        1.570   3.473   0.000   5.043
   31        1.569   3.475   0.000   5.045
   32        1.568   3.475   0.000   5.043
   33        1.570   3.474   0.000   5.044
   34        1.570   3.465   0.000   5.035
   35        1.571   3.472   0.000   5.042
   36        1.569   3.471   0.000   5.040
   37        1.570   3.468   0.000   5.039
   38        1.569   3.478   0.000   5.047
   39        1.570   3.467   0.000   5.037
   40        1.570   3.472   0.000   5.042
   41        1.569   3.470   0.000   5.039
   42        1.570   3.474   0.000   5.044
   43        1.568   3.473   0.000   5.041
   44        1.570   3.481   0.000   5.052
   45        1.571   3.465   0.000   5.036
   46        1.569   3.475   0.000   5.044
   47        1.570   3.478   0.000   5.047
   48        1.571   3.480   0.000   5.050
   49        1.569   3.475   0.000   5.044
   50        1.569   3.476   0.000   5.045
   51        1.568   3.473   0.000   5.041
   52        1.569   3.474   0.000   5.043
   53        1.570   3.474   0.000   5.045
   54        1.569   3.476   0.000   5.045
   55        1.730   4.375   0.000   6.105
   56        1.732   4.373   0.000   6.105
   57        1.730   4.378   0.000   6.107
   58        1.730   4.381   0.000   6.112
   59        1.732   4.373   0.000   6.104
   60        1.730   4.379   0.000   6.108
   61        1.731   4.378   0.000   6.109
   62        1.730   4.379   0.000   6.108
   63        1.729   4.377   0.000   6.106
   64        1.730   4.377   0.000   6.107
   65        1.731   4.373   0.000   6.103
   66        1.730   4.378   0.000   6.108
   67        1.729   4.378   0.000   6.107
   68        1.730   4.382   0.000   6.111
   69        1.729   4.379   0.000   6.109
   70        1.729   4.377   0.000   6.106
   71        1.730   4.383   0.000   6.113
   72        1.729   4.377   0.000   6.106
   73        1.729   4.377   0.000   6.106
   74        1.729   4.382   0.000   6.111
   75        1.730   4.376   0.000   6.107
   76        1.730   4.376   0.000   6.106
   77        1.732   4.373   0.000   6.105
   78        1.729   4.381   0.000   6.110
   79        1.729   4.378   0.000   6.107
   80        1.730   4.376   0.000   6.106
   81        1.730   4.378   0.000   6.108
   82        1.730   4.378   0.000   6.108
   83        1.729   4.381   0.000   6.110
   84        1.730   4.380   0.000   6.109
   85        1.730   4.376   0.000   6.106
   86        1.730   4.378   0.000   6.108
   87        1.730   4.385   0.000   6.115
   88        1.730   4.380   0.000   6.110
   89        1.732   4.374   0.000   6.106
   90        1.730   4.376   0.000   6.106
   91        1.730   4.374   0.000   6.105
   92        1.731   4.374   0.000   6.105
   93        1.730   4.377   0.000   6.107
   94        1.730   4.375   0.000   6.105
   95        1.731   4.374   0.000   6.106
   96        1.731   4.375   0.000   6.105
   97        1.731   4.373   0.000   6.104
   98        1.731   4.377   0.000   6.108
   99        1.730   4.376   0.000   6.105
  100        1.730   4.377   0.000   6.106
  101        1.729   4.379   0.000   6.108
  102        1.729   4.378   0.000   6.107
  103        1.730   4.378   0.000   6.107
  104        1.730   4.376   0.000   6.106
  105        1.729   4.379   0.000   6.108
  106        1.730   4.378   0.000   6.108
  107        1.730   4.377   0.000   6.106
  108        1.730   4.376   0.000   6.106
--------------------------------------------------
tot        144.498 504.561  48.201 697.260



 magnetization (x)

# of ion       s       p       d       tot
------------------------------------------
    1       -0.000  -0.000  -0.000  -0.000
    2        0.000  -0.000  -0.000  -0.000
    3        0.000   0.000   0.000   0.000
    4        0.000  -0.000   0.000   0.000
    5       -0.000   0.000   0.000   0.000
    6       -0.000   0.000   0.000   0.000
    7        0.000   0.000  -0.000  -0.000
    8       -0.000  -0.000  -0.000  -0.000
    9        0.000  -0.000   0.000  -0.000
   10       -0.000  -0.000   0.000   0.000
   11       -0.000  -0.000  -0.000  -0.000
   12       -0.000   0.000  -0.000  -0.000
   13       -0.000   0.000   0.000   0.000
   14        0.000   0.000   0.000   0.000
   15        0.000  -0.000  -0.000  -0.000
   16       -0.000  -0.000  -0.000  -0.000
   17       -0.000  -0.000  -0.000  -0.000
   18        0.000  -0.000  -0.000  -0.000
   19        0.000   0.000   0.000   0.000
   20        0.000   0.000   0.000   0.000
   21       -0.000   0.000  -0.000  -0.000
   22       -0.000   0.000  -0.000   0.000
   23        0.000   0.000  -0.000  -0.000
   24       -0.000   0.000  -0.000   0.000
   25        0.000   0.000   0.000   0.000
   26        0.000   0.000  -0.000  -0.000
   27        0.000  -0.000  -0.000  -0.000
   28        0.000  -0.000   0.000  -0.000
   29        0.000  -0.000   0.000  -0.000
   30       -0.000   0.000   0.000  -0.000
   31        0.000   0.000   0.000   0.000
   32       -0.000  -0.000   0.000  -0.000
   33        0.000   0.000   0.000   0.000
   34       -0.000   0.000   0.000  -0.000
   35       -0.000   0.000   0.000   0.000
   36       -0.000  -0.000   0.000  -0.000
   37        0.000   0.000   0.000   0.000
   38        0.000  -0.000   0.000  -0.000
   39       -0.000   0.000   0.000  -0.000
   40        0.000   0.000   0.000   0.000
   41        0.000  -0.000   0.000  -0.000
   42       -0.000  -0.000   0.000  -0.000
   43        0.000  -0.000   0.000  -0.000
   44        0.000   0.000   0.000   0.000
   45       -0.000   0.000   0.000  -0.000
   46       -0.000   0.000   0.000  -0.000
   47        0.000  -0.000   0.000  -0.000
   48       -0.000   0.000   0.000  -0.000
   49        0.000   0.000   0.000   0.000
   50       -0.000  -0.000   0.000  -0.000
   51        0.000  -0.000   0.000   0.000
   52        0.000  -0.000   0.000  -0.000
   53        0.000  -0.000   0.000   0.000
   54       -0.000  -0.000   0.000  -0.000
   55        0.000  -0.000   0.000  -0.000
   56       -0.000   0.000   0.000   0.000
   57       -0.000   0.000   0.000  -0.000
   58       -0.000  -0.000   0.000  -0.000
   59       -0.000   0.000   0.000   0.000
   60       -0.000   0.000   0.000   0.000
   61       -0.000  -0.000   0.000  -0.000
   62        0.000   0.000   0.000   0.000
   63       -0.000  -0.000   0.000  -0.000
   64       -0.000  -0.000   0.000  -0.000
   65        0.000   0.000   0.000   0.000
   66        0.000   0.000   0.000   0.000
   67        0.000   0.000   0.000   0.000
   68       -0.000   0.000   0.000  -0.000
   69       -0.000   0.000   0.000   0.000
   70       -0.000  -0.000   0.000  -0.000
   71        0.000  -0.000   0.000  -0.000
   72       -0.000   0.000   0.000  -0.000
   73        0.000   0.000   0.000   0.000
   74       -0.000  -0.000   0.000  -0.000
   75       -0.000  -0.000   0.000  -0.000
   76       -0.000   0.000   0.000  -0.000
   77        0.000   0.000   0.000   0.000
   78       -0.000  -0.000   0.000  -0.000
   79       -0.000   0.000   0.000  -0.000
   80       -0.000  -0.000   0.000  -0.000
   81       -0.000   0.000   0.000  -0.000
   82        0.000  -0.000   0.000   0.000
   83        0.000  -0.000   0.000  -0.000
   84       -0.000   0.000   0.000  -0.000
   85       -0.000  -0.000   0.000  -0.000
   86       -0.000  -0.000   0.000  -0.000
   87       -0.000  -0.000   0.000  -0.000
   88       -0.000  -0.000   0.000  -0.000
   89       -0.000  -0.000   0.000  -0.000
   90        0.000   0.000   0.000   0.000
   91       -0.000   0.000   0.000   0.000
   92        0.000  -0.000   0.000   0.000
   93       -0.000   0.000   0.000   0.000
   94        0.000  -0.000   0.000   0.000
   95       -0.000  -0.000   0.000  -0.000
   96        0.000   0.000   0.000   0.000
   97       -0.000   0.000   0.000  -0.000
   98        0.000   0.000   0.000   0.000
   99       -0.000  -0.000   0.000  -0.000
  100       -0.000  -0.000   0.000  -0.000
  101        0.000  -0.000   0.000  -0.000
  102       -0.000  -0.000   0.000  -0.000
  103        0.000   0.000   0.000   0.000
  104       -0.000  -0.000   0.000  -0.000
  105        0.000  -0.000   0.000   0.000
  106       -0.000   0.000   0.000  -0.000
  107       -0.000  -0.000   0.000  -0.000
  108       -0.000   0.000   0.000   0.000
--------------------------------------------------
tot         -0.000   0.000  -0.000  -0.000
 

 total amount of memory used by VASP MPI-rank0   298667. kBytes
=======================================================================

   base      :      30000. kBytes
   nonlr-proj:      25301. kBytes
   fftplans  :      18873. kBytes
   grid      :      21088. kBytes
   one-center:        435. kBytes
   wavefun   :     202970. kBytes
 
  
  
 General timing and accounting informations for this job:
 ========================================================
  
                  Total CPU time used (sec):      519.837
                            User time (sec):      498.277
                          System time (sec):       21.561
                         Elapsed time (sec):      533.585
  
                   Maximum memory used (kb):      822672.
                   Average memory used (kb):          N/A
  
                          Minor page faults:       155812
                          Major page faults:           11
                 Voluntary context switches:         9211
