       N       E                     dE             d eps       ncg     rms          rms(c)
DAV:   1    -0.213293432247E+03   -0.21329E+03   -0.15621E-03 19904   0.233E-01    0.139E-03
DAV:   2    -0.213293432225E+03    0.21413E-07   -0.18871E-07 11136   0.352E-03
   1 F= -.21329343E+03 E0= -.21329343E+03  d E =-.213293E+03  mag=    -0.0000
