LTO                                     
           1
     7.756514   -0.000086    0.001999
    -0.000087    7.756777    0.003069
     0.001982    0.003082    7.665593
   Ti   O    F 
   8   8  16
Direct configuration=     1
   0.00116055  0.99992236  0.98073528
   0.98929118  0.98939653  0.50276899
   0.98483911  0.49993955  0.98861880
   0.00024588  0.51509905  0.51134305
   0.49969527  0.01517427  0.01269064
   0.51515604  0.99978472  0.48729744
   0.51071046  0.48950177  0.99722547
   0.49885224  0.49992710  0.51924228
   0.74912389  0.00128355  0.50023947
   0.75112839  0.50151388  0.00370014
   0.00073824  0.74885751  0.49630412
   0.49925963  0.24920578  0.99971724
   0.00182150  0.00282984  0.75324908
   0.00152106  0.49782889  0.74997217
   0.49883298  0.99830161  0.24998746
   0.49785744  0.50256446  0.74674029
   0.24844502  0.99505346  0.99994152
   0.25167732  0.00301055  0.50119756
   0.24838442  0.50327843  0.00602699
   0.25186404  0.49531683  0.49076260
   0.75261387  0.99479310  0.99974144
   0.74701584  0.49513438  0.48940877
   0.00441824  0.24741711  0.00901230
   0.00218830  0.25162449  0.49394156
   0.00362822  0.75226661  0.01086816
   0.49613207  0.25189776  0.50062637
   0.49783203  0.75176507  0.99885871
   0.49524830  0.74772906  0.49973817
   0.00391469  0.00421419  0.24434607
   0.00376349  0.49539368  0.25001789
   0.49607778  0.99531683  0.75003156
   0.49656251  0.50465759  0.25564841
