       N       E                     dE             d eps       ncg     rms          rms(c)
DAV:   1    -0.210318759038E+03   -0.21032E+03   -0.51302E-03 20480   0.458E-01    0.522E-03
DAV:   2    -0.210318758656E+03    0.38236E-06   -0.24423E-06 21568   0.111E-02
   1 F= -.21031876E+03 E0= -.21031876E+03  d E =-.210319E+03  mag=    -0.0000
