 vasp.5.4.4.18Apr17-6-g9f103f2a35 (build Apr 30 2017 20:10:35) complex          
  
 executed on             LinuxIFC date 2017.10.05  09:51:15
 running on  128 total cores
 distrk:  each k-point on  128 cores,    1 groups
 distr:  one band on NCORES_PER_BAND=   8 cores,   16 groups


--------------------------------------------------------------------------------------------------------


 INCAR:
 POTCAR:   PAW_PBE Ti_pv 07Sep2000                
 POTCAR:   PAW_PBE O 08Apr2002                    
 POTCAR:    PAW_PBE F 08Apr2002                   
 POTCAR:   PAW_PBE Ti_pv 07Sep2000                
   VRHFIN =Ti: d3 s1                                                            
   LEXCH  = PE                                                                  
   EATOM  =  1042.3781 eV,   76.6126 Ry                                         
                                                                                
   TITEL  = PAW_PBE Ti_pv 07Sep2000                                             
   LULTRA =        F    use ultrasoft PP ?                                      
   IUNSCR =        1    unscreen: 0-lin 1-nonlin 2-no                           
   RPACOR =    2.200    partial core radius                                     
   POMASS =   47.880; ZVAL   =   10.000    mass and valenz                      
   RCORE  =    2.500    outmost cutoff radius                                   
   RWIGS  =    2.500; RWIGS  =    1.323    wigner-seitz radius (au A)           
   ENMAX  =  222.338; ENMIN  =  166.753 eV                                      
   RCLOC  =    1.701    cutoff for local pot                                    
   LCOR   =        T    correct aug charges                                     
   LPAW   =        T    paw PP                                                  
   EAUG   =  482.848                                                            
   DEXC   =    -.008                                                            
   RMAX   =    3.092    core radius for proj-oper                               
   RAUG   =    1.300    factor for augmentation sphere                          
   RDEP   =    2.538    radius for radial grids                                 
   QCUT   =   -4.042; QGAM   =    8.085    optimization parameters              
                                                                                
   Description                                                                  
     l     E      TYP  RCUT    TYP  RCUT                                        
     1   .000     23  2.300                                                     
     1  -.100     23  2.300                                                     
     2   .000     23  2.500                                                     
     2   .000     23  2.500                                                     
     0   .000     23  2.500                                                     
     0  1.500     23  2.500                                                     
     3   .000      7   .000                                                     
  local pseudopotential read in
  partial core-charges read in
  atomic valenz-charges read in
  non local Contribution for L=           1  read in
    real space projection operators read in
  non local Contribution for L=           1  read in
    real space projection operators read in
  non local Contribution for L=           2  read in
    real space projection operators read in
  non local Contribution for L=           2  read in
    real space projection operators read in
  non local Contribution for L=           0  read in
    real space projection operators read in
  non local Contribution for L=           0  read in
    real space projection operators read in
    PAW grid and wavefunctions read in
 
   number of l-projection  operators is LMAX  =           6
   number of lm-projection operators is LMMAX =          18
 
 POTCAR:   PAW_PBE O 08Apr2002                    
   VRHFIN =O: s2p4                                                              
   LEXCH  = PE                                                                  
   EATOM  =   432.3788 eV,   31.7789 Ry                                         
                                                                                
   TITEL  = PAW_PBE O 08Apr2002                                                 
   LULTRA =        F    use ultrasoft PP ?                                      
   IUNSCR =        0    unscreen: 0-lin 1-nonlin 2-no                           
   RPACOR =     .000    partial core radius                                     
   POMASS =   16.000; ZVAL   =    6.000    mass and valenz                      
   RCORE  =    1.520    outmost cutoff radius                                   
   RWIGS  =    1.550; RWIGS  =     .820    wigner-seitz radius (au A)           
   ENMAX  =  400.000; ENMIN  =  300.000 eV                                      
   ICORE  =        2    local potential                                         
   LCOR   =        T    correct aug charges                                     
   LPAW   =        T    paw PP                                                  
   EAUG   =  605.392                                                            
   DEXC   =     .000                                                            
   RMAX   =    2.264    core radius for proj-oper                               
   RAUG   =    1.300    factor for augmentation sphere                          
   RDEP   =    1.550    radius for radial grids                                 
   QCUT   =   -5.520; QGAM   =   11.041    optimization parameters              
                                                                                
   Description                                                                  
     l     E      TYP  RCUT    TYP  RCUT                                        
     0   .000     23  1.200                                                     
     0  -.700     23  1.200                                                     
     1   .000     23  1.520                                                     
     1   .600     23  1.520                                                     
     2   .000      7  1.500                                                     
  local pseudopotential read in
  atomic valenz-charges read in
  non local Contribution for L=           0  read in
    real space projection operators read in
  non local Contribution for L=           0  read in
    real space projection operators read in
  non local Contribution for L=           1  read in
    real space projection operators read in
  non local Contribution for L=           1  read in
    real space projection operators read in
    PAW grid and wavefunctions read in
 
   number of l-projection  operators is LMAX  =           4
   number of lm-projection operators is LMMAX =           8
 
 POTCAR:    PAW_PBE F 08Apr2002                   
   VRHFIN =F: s2p5                                                              
   LEXCH  = PE                                                                  
   EATOM  =   659.6475 eV,   48.4827 Ry                                         
                                                                                
   TITEL  = PAW_PBE F 08Apr2002                                                 
   LULTRA =        F    use ultrasoft PP ?                                      
   IUNSCR =        1    unscreen: 0-lin 1-nonlin 2-no                           
   RPACOR =    1.200    partial core radius                                     
   POMASS =   18.998; ZVAL   =    7.000    mass and valenz                      
   RCORE  =    1.520    outmost cutoff radius                                   
   RWIGS  =    1.500; RWIGS  =    0.794    wigner-seitz radius (au A)           
   ENMAX  =  400.000; ENMIN  =  300.000 eV                                      
   ICORE  =        2    local potential                                         
   LCOR   =        T    correct aug charges                                     
   LPAW   =        T    paw PP                                                  
   EAUG   =  613.614                                                            
   RMAX   =    1.555    core radius for proj-oper                               
   RAUG   =    1.300    factor for augmentation sphere                          
   RDEP   =    1.539    radius for radial grids                                 
   RDEPT  =    1.299    core radius for aug-charge                              
                                                                                
   Atomic configuration                                                         
    4 entries                                                                   
     n  l   j            E        occ.                                          
     1  0  0.50      -663.3661   2.0000                                         
     2  0  0.50       -29.8995   2.0000                                         
     2  1  0.50       -11.1114   5.0000                                         
     3  2  1.50       -10.8847   0.0000                                         
   Description                                                                  
     l       E           TYP  RCUT    TYP  RCUT                                 
     0    -29.8995018     23  1.200                                             
     0     -9.5240782     23  1.200                                             
     1    -11.1113914     23  1.520                                             
     1      1.3605826     23  1.520                                             
     2    -10.8846608      7  1.500                                             
  local pseudopotential read in
  partial core-charges read in
  partial kinetic energy density read in
  atomic valenz-charges read in
  non local Contribution for L=           0  read in
    real space projection operators read in
  non local Contribution for L=           0  read in
    real space projection operators read in
  non local Contribution for L=           1  read in
    real space projection operators read in
  non local Contribution for L=           1  read in
    real space projection operators read in
    PAW grid and wavefunctions read in
 
   number of l-projection  operators is LMAX  =           4
   number of lm-projection operators is LMMAX =           8
 
 Optimization of the real space projectors (new method)

 maximal supplied QI-value         = 15.12
 optimisation between [QCUT,QGAM] = [ 13.45, 27.06] = [ 50.69,205.06] Ry 
 Optimized for a Real-space Cutoff    1.49 Angstroem

   l    n(q)    QCUT    max X(q) W(low)/X(q) W(high)/X(q)  e(spline) 
   1     12    13.455     4.841    0.13E-05    0.83E-06    0.56E-07
   1     12    13.455     5.701    0.32E-04    0.25E-04    0.17E-06
   2     11    13.455     4.569    0.64E-05    0.34E-05    0.50E-07
   2     11    13.455    32.276    0.49E-04    0.38E-04    0.46E-06
   0     12    13.455    30.046    0.17E-04    0.41E-05    0.51E-07
   0     12    13.455    45.433    0.12E-04    0.27E-04    0.38E-06
 Optimization of the real space projectors (new method)

 maximal supplied QI-value         = 24.76
 optimisation between [QCUT,QGAM] = [ 13.37, 26.98] = [ 50.04,203.89] Ry 
 Optimized for a Real-space Cutoff    1.17 Angstroem

   l    n(q)    QCUT    max X(q) W(low)/X(q) W(high)/X(q)  e(spline) 
   0      9    13.368     4.192    0.20E-04    0.58E-05    0.56E-07
   0      9    13.368     8.473    0.60E-04    0.52E-04    0.21E-06
   1      9    13.368     2.474    0.22E-04    0.17E-04    0.28E-07
   1      9    13.368     3.912    0.94E-04    0.97E-04    0.20E-06
 Optimization of the real space projectors (new method)

 maximal supplied QI-value         = 24.76
 optimisation between [QCUT,QGAM] = [ 13.37, 26.98] = [ 50.04,203.89] Ry 
 Optimized for a Real-space Cutoff    1.17 Angstroem

   l    n(q)    QCUT    max X(q) W(low)/X(q) W(high)/X(q)  e(spline) 
   0      9    13.368    14.049    0.39E-04    0.34E-04    0.16E-06
   0      9    13.368     8.945    0.54E-04    0.47E-04    0.20E-06
   1      9    13.368     7.086    0.99E-04    0.10E-03    0.23E-06
   1      9    13.368     6.747    0.86E-04    0.89E-04    0.21E-06

 ----------------------------------------------------------------------------- 
|                                                                             |
|  ADVICE TO THIS USER RUNNING 'VASP/VAMP'   (HEAR YOUR MASTER'S VOICE ...):  |
|                                                                             |
|      You enforced a specific xc-type in the INCAR file,                     |
|      a different type was found on the POTCAR file                          |
|          I HOPE YOU KNOW, WHAT YOU ARE  DOING                               |
|                                                                             |
 ----------------------------------------------------------------------------- 

 PAW_PBE Ti_pv 07Sep2000                :
 energy of atom  1       EATOM=-1042.3781
 kinetic energy error for atom=    0.0006 (will be added to EATOM!!)
 PAW_PBE O 08Apr2002                    :
 energy of atom  2       EATOM= -432.3788
 kinetic energy error for atom=    0.0091 (will be added to EATOM!!)
  PAW_PBE F 08Apr2002                   :
 energy of atom  3       EATOM= -659.6475
 kinetic energy error for atom=    0.0140 (will be added to EATOM!!)
 
 
 POSCAR: Ti64 O64 F128                           
  positions in direct lattice
  velocities in cartesian coordinates
 exchange correlation table for  LEXCH =       14
   RHO(1)=    0.500       N(1)  =     2000
   RHO(2)=  100.500       N(2)  =     4000

 VTST: version 3.1, (03/28/14)

 CHAIN: initializing optimizer
 
 OPT: Using VASP Conjugate-Gradient optimizer
 CHAIN: Read ICHAIN            0
 
 POSCAR: Ti64 O64 F128                           
  positions in direct lattice
  velocities in cartesian coordinates
 


--------------------------------------------------------------------------------------------------------


 ion  position               nearest neighbor table
   1  0.001  0.996  0.995- 112 1.83  67 1.83 170 1.95 198 1.97 216 2.01 129 2.03
   2  0.002  0.991  0.504- 113 1.78 130 1.90 171 1.93 199 1.93 135 1.96 217 2.01
   3  0.005  0.498  0.006-  65 1.84 111 1.85 172 1.93 200 1.97 218 2.01 137 2.02
   4  0.009  0.503  0.506-  88 1.81  66 1.83 227 1.96 219 1.98 136 2.01 201 2.02
   5  0.491  0.006  0.004-  94 1.82 106 1.84 131 1.94 138 1.97 229 2.01 173 2.04
   6  0.499  0.992  0.491- 115 1.82  68 1.84 174 1.95 196 1.96 220 2.01 132 2.02
   7  0.492  0.497  0.993-  70 1.80  95 1.84 228 1.96 221 1.98 175 2.03 133 2.04
   8  0.498  0.493  0.492-  69 1.82 114 1.86 197 1.94 176 1.97 134 2.01 222 2.04
   9  0.006  0.012  0.251- 107 1.80  89 1.82 129 1.92 135 2.01 204 2.05 231 2.05
  10  0.995  0.994  0.759-  67 1.81 117 1.84 205 1.94 177 1.96 223 2.00 130 2.10
  11  0.996  0.499  0.244-  65 1.83  98 1.84 230 1.94 224 1.99 178 2.01 136 2.02
  12  0.002  0.496  0.745-  66 1.84 116 1.84 179 1.92 206 1.98 137 2.01 225 2.03
  13  0.495  0.007  0.256-  68 1.82 108 1.83 202 1.94 180 1.99 234 2.02 131 2.04
  14  0.509  0.003  0.748-  90 1.82 109 1.84 132 1.94 138 1.98 235 2.00 203 2.05
  15  0.492  0.496  0.253-  96 1.81  69 1.85 232 1.96 226 1.98 133 2.01 181 2.05
  16  0.495  0.506  0.752-  97 1.85 110 1.87  70 1.88 134 2.02 182 2.04 233 2.05
  17  0.002  0.258  0.006- 111 1.82  71 1.86 183 1.95 209 1.97 146 2.01 216 2.02
  18  0.005  0.246  0.507-  72 1.83  91 1.84 227 1.97 217 1.98 145 2.02 210 2.03
  19  0.995  0.759  0.001- 101 1.84 112 1.84 139 1.96 147 1.98 218 2.00 184 2.02
  20  0.002  0.757  0.493-  73 1.80 113 1.87 185 1.94 211 1.95 219 1.99 140 2.02
  21  0.491  0.244  0.999- 106 1.82  99 1.82 149 1.95 141 1.96 228 2.02 186 2.05
  22  0.506  0.254  0.500- 114 1.82  92 1.85 142 1.95 148 1.97 207 2.02 220 2.05
  23  0.495  0.752  0.992-  75 1.82 100 1.85 229 1.96 221 1.98 187 2.03 143 2.04
  24  0.502  0.753  0.491-  74 1.83 115 1.85 208 1.95 188 1.95 222 2.01 144 2.01
  25  0.995  0.244  0.245-  71 1.82 107 1.85 214 1.95 189 1.99 145 2.01 230 2.02
  26  0.999  0.256  0.744- 116 1.83  72 1.84 190 1.94 215 1.98 146 2.02 223 2.03
  27  0.996  0.755  0.258-  73 1.84 104 1.88 231 1.93 224 1.94 191 1.97 139 2.00
  28  0.991  0.756  0.749- 105 1.83 117 1.84 140 1.96 147 1.97 225 2.00 192 2.03
  29  0.507  0.239  0.247- 108 1.82  93 1.82 148 1.95 141 1.96 232 2.02 212 2.03
  30  0.493  0.241  0.751- 102 1.81 109 1.84 142 1.95 149 1.97 233 2.00 193 2.06
  31  0.495  0.750  0.255- 103 1.84  74 1.84 234 1.95 226 1.96 143 2.00 194 2.05
  32  0.505  0.741  0.753- 110 1.80  75 1.85 195 1.96 213 1.98 144 2.02 235 2.06
  33  0.258  1.000  0.994-  78 1.82  94 1.83 250 1.95 236 1.96 170 2.04 150 2.04
  34  0.250  0.992  0.493- 122 1.83  77 1.84 196 1.95 171 2.00 237 2.01 151 2.02
  35  0.257  0.497  0.009-  76 1.80  95 1.81 238 1.96 249 1.98 172 2.04 158 2.05
  36  0.242  0.493  0.496-  88 1.82 121 1.84 157 1.93 152 1.97 197 2.02 239 2.04
  37  0.748  0.997  0.995- 124 1.83  80 1.84 173 1.95 198 1.98 240 2.01 153 2.04
  38  0.752  0.005  0.494- 118 1.82  79 1.84 174 1.95 199 1.99 154 2.01 252 2.04
  39  0.748  0.497  0.995-  82 1.83 123 1.85 175 1.93 200 1.97 241 2.02 155 2.02
  40  0.754  0.505  0.493-  81 1.82 119 1.86 201 1.93 176 1.96 251 2.02 156 2.03
  41  0.243  0.004  0.257-  89 1.83  77 1.84 242 1.93 253 1.97 150 2.02 202 2.06
  42  0.253  0.994  0.755- 127 1.82  78 1.86 203 1.94 177 1.98 243 2.01 151 2.03
  43  0.253  0.490  0.243-  76 1.85  96 1.86 125 1.87 178 2.03 244 2.04 157 2.05
  44  0.260  0.494  0.752-  97 1.79 126 1.86 158 1.94 152 1.98 245 2.02 179 2.05
  45  0.754  0.008  0.258- 120 1.82  79 1.83 204 1.95 180 1.98 153 2.01 255 2.06
  46  0.743  0.001  0.759-  90 1.82  80 1.83 246 1.93 256 1.97 205 2.05 154 2.05
  47  0.757  0.497  0.255-  98 1.84  81 1.84 254 1.94 155 2.01 181 2.01 247 2.01
  48  0.751  0.492  0.756- 128 1.83  82 1.83 182 1.92 206 1.96 156 2.02 248 2.05
  49  0.258  0.254  0.007-  83 1.81  99 1.84 249 1.95 236 1.96 183 2.03 166 2.04
  50  0.243  0.252  0.498-  91 1.84 121 1.84 165 1.95 159 1.98 207 2.03 237 2.03
  51  0.256  0.750  0.993- 100 1.83  86 1.83 238 1.96 250 1.97 160 2.02 184 2.04
  52  0.247  0.752  0.492-  85 1.83 122 1.85 208 1.95 185 1.98 239 2.00 161 2.01
  53  0.745  0.260  0.994- 123 1.82  87 1.83 186 1.95 209 1.98 240 2.02 162 2.05
  54  0.745  0.243  0.503-  92 1.83 118 1.86 163 1.93 167 1.99 251 2.02 210 2.02
  55  0.755  0.759  0.998- 124 1.84 101 1.84 169 1.94 164 2.00 241 2.00 187 2.02
  56  0.753  0.742  0.508-  84 1.81 119 1.82 188 1.94 211 1.97 252 2.03 168 2.07
  57  0.251  0.260  0.245- 125 1.78  83 1.85 212 1.95 189 1.98 165 2.02 242 2.07
  58  0.258  0.255  0.755- 126 1.81 102 1.84 166 1.95 159 1.98 243 2.03 190 2.04
  59  0.255  0.748  0.255- 103 1.83  85 1.85 244 1.93 253 1.97 160 2.00 191 2.06
  60  0.248  0.754  0.755-  86 1.84 127 1.84 192 1.95 213 1.96 245 2.01 161 2.02
  61  0.744  0.242  0.248- 120 1.82  93 1.83 162 1.93 167 1.97 254 2.02 214 2.03
  62  0.748  0.260  0.758- 128 1.81  87 1.83 193 1.94 215 1.97 246 2.04 163 2.04
  63  0.757  0.754  0.253- 104 1.80 255 1.92 168 1.92 247 1.94 164 1.94 194 1.99
  64  0.759  0.747  0.744- 105 1.82  84 1.82 248 1.93 256 1.97 169 2.02 195 2.03
  65  0.014  0.510  0.126-  11 1.83   3 1.84
  66  0.011  0.509  0.625-   4 1.83  12 1.84
  67  0.983  0.992  0.876-  10 1.81   1 1.83
  68  0.480  0.012  0.374-  13 1.82   6 1.84
  69  0.492  0.512  0.374-   8 1.82  15 1.85
  70  0.494  0.509  0.875-   7 1.80  16 1.88
  71  0.987  0.246  0.126-  25 1.82  17 1.86
  72  0.985  0.241  0.625-  18 1.83  26 1.84
  73  0.017  0.764  0.376-  20 1.80  27 1.84
  74  0.512  0.734  0.373-  24 1.83  31 1.84
  75  0.511  0.742  0.874-  23 1.82  32 1.85
  76  0.231  0.482  0.124-  35 1.80  43 1.85
  77  0.268  0.006  0.375-  41 1.84  34 1.84
  78  0.264  0.009  0.876-  33 1.82  42 1.86
  79  0.765  0.985  0.375-  45 1.83  38 1.84
  80  0.766  0.998  0.876-  46 1.83  37 1.84
  81  0.755  0.485  0.375-  40 1.82  47 1.84
  82  0.756  0.494  0.876-  48 1.83  39 1.83
  83  0.263  0.268  0.124-  49 1.81  57 1.85
  84  0.769  0.741  0.625-  56 1.81  64 1.82
  85  0.236  0.738  0.374-  52 1.83  59 1.85
  86  0.239  0.740  0.874-  51 1.83  60 1.84
  87  0.729  0.258  0.876-  62 1.83  53 1.83
  88  0.125  0.516  0.486-   4 1.81  36 1.82
  89  0.124  0.018  0.268-   9 1.82  41 1.83
  90  0.626  0.983  0.765-  46 1.82  14 1.82
  91  0.124  0.234  0.510-  18 1.84  50 1.84
  92  0.626  0.238  0.513-  54 1.83  22 1.85
  93  0.626  0.234  0.235-  29 1.82  61 1.83
  94  0.375  0.981  0.016-   5 1.82  33 1.83
  95  0.374  0.480  0.011-  35 1.81   7 1.84
  96  0.375  0.486  0.238-  15 1.81  43 1.86
  97  0.375  0.510  0.737-  44 1.79  16 1.85
  98  0.876  0.489  0.240-  47 1.84  11 1.84
  99  0.375  0.267  0.981-  21 1.82  49 1.84
 100  0.374  0.766  0.992-  51 1.83  23 1.85
 101  0.875  0.763  0.987-  19 1.84  55 1.84
 102  0.376  0.236  0.770-  30 1.81  58 1.84
 103  0.375  0.759  0.258-  59 1.83  31 1.84
 104  0.874  0.765  0.264-  63 1.80  27 1.88
 105  0.875  0.735  0.770-  64 1.82  28 1.83
 106  0.485  0.126  0.012-  21 1.82   5 1.84
 107  0.978  0.126  0.263-   9 1.80  25 1.85
 108  0.483  0.124  0.230-  29 1.82  13 1.83
 109  0.514  0.123  0.742-  14 1.84  30 1.84
 110  0.518  0.625  0.737-  32 1.80  16 1.87
 111  0.012  0.377  0.003-  17 1.82   3 1.85
 112  0.013  0.878  0.013-   1 1.83  19 1.84
 113  0.020  0.876  0.516-   2 1.78  20 1.87
 114  0.508  0.372  0.486-  22 1.82   8 1.86
 115  0.513  0.874  0.487-   6 1.82  24 1.85
 116  0.988  0.376  0.747-  26 1.83  12 1.84
 117  0.987  0.876  0.736-  28 1.84  10 1.84
 118  0.764  0.124  0.490-  38 1.82  54 1.86
 119  0.766  0.626  0.486-  56 1.82  40 1.86
 120  0.769  0.126  0.264-  45 1.82  61 1.82
 121  0.240  0.372  0.487-  50 1.84  36 1.84
 122  0.232  0.873  0.494-  34 1.83  52 1.85
 123  0.739  0.378  0.014-  53 1.82  39 1.85
 124  0.738  0.878  0.010-  37 1.83  55 1.84
 125  0.234  0.372  0.270-  57 1.78  43 1.87
 126  0.258  0.373  0.763-  58 1.81  44 1.86
 127  0.259  0.874  0.754-  42 1.82  60 1.84
 128  0.770  0.375  0.739-  62 1.81  48 1.83
 129  0.014  0.016  0.126-   9 1.92   1 2.03
 130  0.016  0.018  0.625-   2 1.90  10 2.10
 131  0.519  0.985  0.126-   5 1.94  13 2.04
 132  0.516  0.989  0.622-  14 1.94   6 2.02
 133  0.513  0.485  0.124-  15 2.01   7 2.04
 134  0.509  0.486  0.623-   8 2.01  16 2.02
 135  0.982  0.982  0.378-   2 1.96   9 2.01
 136  0.988  0.494  0.376-   4 2.01  11 2.02
 137  0.987  0.502  0.875-  12 2.01   3 2.02
 138  0.482  0.006  0.875-   5 1.97  14 1.98
 139  0.987  0.740  0.128-  19 1.96  27 2.00
 140  0.980  0.737  0.622-  28 1.96  20 2.02
 141  0.482  0.270  0.125-  29 1.96  21 1.96
 142  0.481  0.259  0.625-  30 1.95  22 1.95
 143  0.497  0.764  0.125-  31 2.00  23 2.04
 144  0.490  0.761  0.623-  24 2.01  32 2.02
 145  0.010  0.258  0.375-  25 2.01  18 2.02
 146  0.014  0.251  0.875-  17 2.01  26 2.02
 147  0.020  0.762  0.874-  28 1.97  19 1.98
 148  0.511  0.227  0.374-  29 1.95  22 1.97
 149  0.525  0.241  0.876-  21 1.95  30 1.97
 150  0.233  0.994  0.125-  41 2.02  33 2.04
 151  0.232  0.996  0.624-  34 2.02  42 2.03
 152  0.234  0.488  0.625-  36 1.97  44 1.98
 153  0.736  0.013  0.128-  45 2.01  37 2.04
 154  0.738  0.005  0.625-  38 2.01  46 2.05
 155  0.743  0.518  0.126-  47 2.01  39 2.02
 156  0.746  0.513  0.625-  48 2.02  40 2.03
 157  0.266  0.516  0.374-  36 1.93  43 2.05
 158  0.261  0.517  0.877-  44 1.94  35 2.05
 159  0.265  0.257  0.626-  50 1.98  58 1.98
 160  0.253  0.761  0.125-  59 2.00  51 2.02
 161  0.261  0.752  0.623-  52 2.01  60 2.02
 162  0.770  0.241  0.125-  61 1.93  53 2.05
 163  0.768  0.239  0.627-  54 1.93  62 2.04
 164  0.762  0.739  0.127-  63 1.94  55 2.00
 165  0.242  0.227  0.373-  50 1.95  57 2.02
 166  0.232  0.232  0.878-  58 1.95  49 2.04
 167  0.737  0.267  0.375-  61 1.97  54 1.99
 168  0.733  0.766  0.376-  63 1.92  56 2.07
 169  0.731  0.760  0.873-  55 1.94  64 2.02
 170  0.126  0.019  0.989-   1 1.95  33 2.04
 171  0.123  0.019  0.481-   2 1.93  34 2.00
 172  0.128  0.517  0.982-   3 1.93  35 2.04
 173  0.622  0.016  0.986-  37 1.95   5 2.04
 174  0.624  0.015  0.485-  38 1.95   6 1.95
 175  0.623  0.517  0.997-  39 1.93   7 2.03
 176  0.626  0.512  0.497-  40 1.96   8 1.97
 177  0.124  0.992  0.762-  10 1.96  42 1.98
 178  0.125  0.515  0.268-  11 2.01  43 2.03
 179  0.126  0.491  0.766-  12 1.92  44 2.05
 180  0.624  0.014  0.265-  45 1.98  13 1.99
 181  0.626  0.509  0.254-  47 2.01  15 2.05
 182  0.626  0.481  0.751-  48 1.92  16 2.04
 183  0.127  0.235  0.013-  17 1.95  49 2.03
 184  0.125  0.737  0.012-  19 2.02  51 2.04
 185  0.123  0.727  0.519-  20 1.94  52 1.98
 186  0.623  0.238  0.023-  53 1.95  21 2.05
 187  0.626  0.738  0.012-  55 2.02  23 2.03
 188  0.626  0.734  0.515-  56 1.94  24 1.95
 189  0.125  0.230  0.241-  57 1.98  25 1.99
 190  0.126  0.256  0.737-  26 1.94  58 2.04
 191  0.122  0.740  0.236-  27 1.97  59 2.06
 192  0.122  0.759  0.731-  60 1.95  28 2.03
 193  0.624  0.265  0.729-  62 1.94  30 2.06
 194  0.628  0.740  0.239-  63 1.99  31 2.05
 195  0.628  0.770  0.735-  32 1.96  64 2.03
 196  0.375  0.983  0.521-  34 1.95   6 1.96
 197  0.373  0.490  0.513-   8 1.94  36 2.02
 198  0.875  0.996  0.022-   1 1.97  37 1.98
 199  0.877  0.982  0.520-   2 1.93  38 1.99
 200  0.876  0.496  0.012-  39 1.97   3 1.97
 201  0.877  0.485  0.509-  40 1.93   4 2.02
 202  0.373  0.980  0.230-  13 1.94  41 2.06
 203  0.377  0.010  0.731-  42 1.94  14 2.05
 204  0.877  0.981  0.234-  45 1.95   9 2.05
 205  0.873  0.018  0.731-  10 1.94  46 2.05
 206  0.875  0.523  0.743-  48 1.96  12 1.98
 207  0.375  0.251  0.486-  22 2.02  50 2.03
 208  0.374  0.760  0.488-  52 1.95  24 1.95
 209  0.874  0.261  0.984-  17 1.97  53 1.98
 210  0.875  0.263  0.486-  54 2.02  18 2.03
 211  0.876  0.773  0.481-  20 1.95  56 1.97
 212  0.377  0.263  0.266-  57 1.95  29 2.03
 213  0.375  0.734  0.755-  60 1.96  32 1.98
 214  0.873  0.274  0.264-  25 1.95  61 2.03
 215  0.874  0.233  0.769-  62 1.97  26 1.98
 216  0.989  0.127  0.994-   1 2.01  17 2.02
 217  0.982  0.120  0.486-  18 1.98   2 2.01
 218  0.992  0.628  0.992-  19 2.00   3 2.01
 219  0.980  0.629  0.489-   4 1.98  20 1.99
 220  0.488  0.121  0.514-   6 2.01  22 2.05
 221  0.486  0.625  0.016-  23 1.98   7 1.98
 222  0.489  0.624  0.514-  24 2.01   8 2.04
 223  0.010  0.124  0.758-  10 2.00  26 2.03
 224  0.989  0.628  0.263-  27 1.94  11 1.99
 225  0.015  0.628  0.758-  28 2.00  12 2.03
 226  0.493  0.624  0.230-  31 1.96  15 1.98
 227  0.012  0.375  0.505-   4 1.96  18 1.97
 228  0.521  0.372  0.989-   7 1.96  21 2.02
 229  0.519  0.878  0.990-  23 1.96   5 2.01
 230  0.019  0.374  0.248-  11 1.94  25 2.02
 231  0.013  0.878  0.236-  27 1.93   9 2.05
 232  0.514  0.370  0.265-  15 1.96  29 2.02
 233  0.493  0.372  0.759-  30 2.00  16 2.05
 234  0.515  0.876  0.260-  31 1.95  13 2.02
 235  0.484  0.875  0.755-  14 2.00  32 2.06
 236  0.266  0.126  0.015-  49 1.96  33 1.96
 237  0.263  0.121  0.511-  34 2.01  50 2.03
 238  0.264  0.625  0.016-  35 1.96  51 1.96
 239  0.264  0.623  0.510-  52 2.00  36 2.04
 240  0.758  0.128  0.998-  37 2.01  53 2.02
 241  0.759  0.628  0.992-  55 2.00  39 2.02
 242  0.269  0.126  0.236-  41 1.93  57 2.07
 243  0.239  0.124  0.740-  42 2.01  58 2.03
 244  0.257  0.623  0.234-  59 1.93  43 2.04
 245  0.236  0.624  0.738-  60 2.01  44 2.02
 246  0.734  0.127  0.752-  46 1.93  62 2.04
 247  0.759  0.628  0.265-  63 1.94  47 2.01
 248  0.729  0.625  0.758-  64 1.93  48 2.05
 249  0.228  0.375  0.977-  49 1.95  35 1.98
 250  0.227  0.876  0.993-  33 1.95  51 1.97
 251  0.741  0.375  0.515-  54 2.02  40 2.02
 252  0.735  0.874  0.510-  56 2.03  38 2.04
 253  0.234  0.875  0.255-  41 1.97  59 1.97
 254  0.736  0.373  0.232-  47 1.94  61 2.02
 255  0.735  0.877  0.235-  63 1.92  45 2.06
 256  0.770  0.876  0.743-  46 1.97  64 1.97
 

IMPORTANT INFORMATION: All symmetrisations will be switched off!
NOSYMM: (Re-)initialisation of all symmetry stuff for point group C_1.

 
 
 KPOINTS: Title                                   

Automatic generation of k-mesh.
Space group operators:
 irot       det(A)        alpha          n_x          n_y          n_z        tau_x        tau_y        tau_z
    1     1.000000     0.000000     1.000000     0.000000     0.000000     0.000000     0.000000     0.000000
 
 Subroutine IBZKPT returns following result:
 ===========================================
 
 Found      4 irreducible k-points:
 
 Following reciprocal coordinates:
            Coordinates               Weight
  0.250000  0.250000  0.250000      2.000000
 -0.250000  0.250000  0.250000      2.000000
  0.250000 -0.250000  0.250000      2.000000
 -0.250000 -0.250000  0.250000      2.000000
 
 Following cartesian coordinates:
            Coordinates               Weight
  0.016379  0.016379  0.016379      2.000000
 -0.016379  0.016379  0.016379      2.000000
  0.016379 -0.016379  0.016379      2.000000
 -0.016379 -0.016379  0.016379      2.000000
 


--------------------------------------------------------------------------------------------------------




 Dimension of arrays:
   k-points           NKPTS =      4   k-points in BZ     NKDIM =      4   number of bands    NBANDS=   1280
   number of dos      NEDOS =   3001   number of ions     NIONS =    256
   non local maximal  LDIM  =      6   non local SUM 2l+1 LMDIM =     18
   total plane-waves  NPLWV = ******
   max r-space proj   IRMAX =  10696   max aug-charges    IRDMAX= 239826
   dimension x,y,z NGX =   140 NGY =  140 NGZ =  140
   dimension x,y,z NGXF=   280 NGYF=  280 NGZF=  280
   support grid    NGXF=   560 NGYF=  560 NGZF=  560
   ions per type =              64  64 128
   NGX,Y,Z   is equivalent  to a cutoff of  15.25, 15.25, 15.25 a.u.
   NGXF,Y,Z  is equivalent  to a cutoff of  30.50, 30.50, 30.50 a.u.

 SYSTEM =  LTO                                     
 POSCAR =  Ti64 O64 F128                           

 Startparameter for this run:
   NWRITE =      2    write-flag & timer
   PREC   = accura    normal or accurate (medium, high low for compatibility)
   ISTART =      1    job   : 0-new  1-cont  2-samecut
   ICHARG =      0    charge: 1-file 2-atom 10-const
   ISPIN  =      2    spin polarized calculation?
   LNONCOLLINEAR =      F non collinear calculations
   LSORBIT =      F    spin-orbit coupling
   INIWAV =      1    electr: 0-lowe 1-rand  2-diag
   LASPH  =      T    aspherical Exc in radial PAW
   METAGGA=      F    non-selfconsistent MetaGGA calc.

 Electronic Relaxation 1
   ENCUT  =  700.0 eV  51.45 Ry    7.17 a.u.  32.93 32.93 32.93*2*pi/ulx,y,z
   ENINI  =  700.0     initial cutoff
   ENAUG  =  613.6 eV  augmentation charge cutoff
   NELM   =     60;   NELMIN=  2; NELMDL=  0     # of ELM steps 
   EDIFF  = 0.1E-05   stopping-criterion for ELM
   LREAL  =      T    real-space projection
   NLSPLINE    = F    spline interpolate recip. space projectors
   LCOMPAT=      F    compatible to vasp.4.4
   GGA_COMPAT  = T    GGA compatible to vasp.4.4-vasp.4.6
   LMAXPAW     = -100 max onsite density
   LMAXMIX     =    4 max onsite mixed and CHGCAR
   VOSKOWN=      0    Vosko Wilk Nusair interpolation
   ROPT   =   -0.00010  -0.00010  -0.00010
 Ionic relaxation
   EDIFFG = -.1E-01   stopping-criterion for IOM
   NSW    =    100    number of steps for IOM
   NBLOCK =      1;   KBLOCK =    100    inner block; outer block 
   IBRION =      2    ionic relax: 0-MD 1-quasi-New 2-CG
   NFREE  =      1    steps in history (QN), initial steepest desc. (CG)
   ISIF   =      2    stress and relaxation
   IWAVPR =     11    prediction:  0-non 1-charg 2-wave 3-comb
   ISYM   =      0    0-nonsym 1-usesym 2-fastsym
   LCORR  =      T    Harris-Foulkes like correction to forces

   POTIM  = 0.5000    time-step for ionic-motion
   TEIN   =    0.0    initial temperature
   TEBEG  =    0.0;   TEEND  =   0.0 temperature during run
   SMASS  =  -3.00    Nose mass-parameter (am)
   estimated Nose-frequenzy (Omega)   =  0.10E-29 period in steps =****** mass=  -0.532E-26a.u.
   SCALEE = 1.0000    scale energy and forces
   NPACO  =    256;   APACO  = 16.0  distance and # of slots for P.C.
   PSTRESS=    0.0 pullay stress

  Mass of Ions in am
   POMASS =  47.88 16.00 19.00
  Ionic Valenz
   ZVAL   =  10.00  6.00  7.00
  Atomic Wigner-Seitz radii
   RWIGS  =  -1.00 -1.00 -1.00
  virtual crystal weights 
   VCA    =   1.00  1.00  1.00
   NELECT =    1920.0000    total number of electrons
   NUPDOWN=      -1.0000    fix difference up-down

 DOS related values:
   EMIN   =  10.00;   EMAX   =-10.00  energy-range for DOS
   EFERMI =   0.00
   ISMEAR =     0;   SIGMA  =   0.01  broadening in eV -4-tet -1-fermi 0-gaus

 Electronic relaxation 2 (details)
   IALGO  =     68    algorithm
   LDIAG  =      T    sub-space diagonalisation (order eigenvalues)
   LSUBROT=      F    optimize rotation matrix (better conditioning)
   TURBO    =      0    0=normal 1=particle mesh
   IRESTART =      0    0=no restart 2=restart with 2 vectors
   NREBOOT  =      0    no. of reboots
   NMIN     =      0    reboot dimension
   EREF     =   0.00    reference energy to select bands
   IMIX   =      4    mixing-type and parameters
     AMIX     =   0.40;   BMIX     =  1.00
     AMIX_MAG =   1.60;   BMIX_MAG =  1.00
     AMIN     =   0.10
     WC   =   100.;   INIMIX=   1;  MIXPRE=   1;  MAXMIX= -45

 Intra band minimization:
   WEIMIN = 0.0010     energy-eigenvalue tresh-hold
   EBREAK =  0.20E-09  absolut break condition
   DEPER  =   0.30     relativ break condition  

   TIME   =   0.40     timestep for ELM

  volume/ion in A,a.u.               =      13.89        93.74
  Fermi-wavevector in a.u.,A,eV,Ry     =   1.333045  2.519090 24.177683  1.777010
  Thomas-Fermi vector in A             =   2.461934
 
 Write flags
   LWAVE        =      T    write WAVECAR
   LDOWNSAMPLE  =      F    k-point downsampling of WAVECAR
   LCHARG       =      T    write CHGCAR
   LVTOT        =      F    write LOCPOT, total local potential
   LVHAR        =      F    write LOCPOT, Hartree potential only
   LELF         =      F    write electronic localiz. function (ELF)
   LORBIT       =     11    0 simple, 1 ext, 2 COOP (PROOUT), +10 PAW based schemes


 Dipole corrections
   LMONO  =      F    monopole corrections only (constant potential shift)
   LDIPOL =      F    correct potential (dipole corrections)
   IDIPOL =      0    1-x, 2-y, 3-z, 4-all directions 
   EPSILON=  1.0000000 bulk dielectric constant

 LDA+U is selected, type is set to LDAUTYPE =  2
   angular momentum for each species LDAUL =     2   -1   -1
   U (eV)           for each species LDAUU =   4.2  0.0  0.0
   J (eV)           for each species LDAUJ =   0.0  0.0  0.0
 Exchange correlation treatment:
   GGA     =    PS    GGA type
   LEXCH   =    14    internal setting for exchange type
   VOSKOWN=      0    Vosko Wilk Nusair interpolation
   LHFCALC =     F    Hartree Fock is set to
   LHFONE  =     F    Hartree Fock one center treatment
   AEXX    =    0.0000 exact exchange contribution

 Linear response parameters
   LEPSILON=     F    determine dielectric tensor
   LRPA    =     F    only Hartree local field effects (RPA)
   LNABLA  =     F    use nabla operator in PAW spheres
   LVEL    =     F    velocity operator in full k-point grid
   LINTERFAST=   F  fast interpolation
   KINTER  =     0    interpolate to denser k-point grid
   CSHIFT  =0.1000    complex shift for real part using Kramers Kronig
   OMEGAMAX=  -1.0    maximum frequency
   DEG_THRESHOLD= 0.2000000E-02 threshold for treating states as degnerate
   RTIME   =   -0.100 relaxation time in fs
  (WPLASMAI=    0.000 imaginary part of plasma frequency in eV, 0.658/RTIME)
   DFIELD  = 0.0000000 0.0000000 0.0000000 field for delta impulse in time
 
 Orbital magnetization related:
   ORBITALMAG=     F  switch on orbital magnetization
   LCHIMAG   =     F  perturbation theory with respect to B field
   DQ        =  0.001000  dq finite difference perturbation B field
   LLRAUG    =     F  two centre corrections for induced B field



--------------------------------------------------------------------------------------------------------


 conjugate gradient relaxation of ions
 charge density and potential will be updated during run
 spin polarized calculation
 RMM-DIIS sequential band-by-band and
  variant of blocked Davidson during initial phase
 perform sub-space diagonalisation
    before iterative eigenvector-optimisation
 modified Broyden-mixing scheme, WC =      100.0
 initial mixing is a Kerker type mixing with AMIX =  0.4000 and BMIX =      1.0000
 Hartree-type preconditioning will be used
 using additional bands          320
 real space projection scheme for non local part
 use partial core corrections
 calculate Harris-corrections to forces 
   (improved forces if not selfconsistent)
 use gradient corrections 
 use of overlap-Matrix (Vanderbilt PP)
 Gauss-broadening in eV      SIGMA  =   0.01


--------------------------------------------------------------------------------------------------------


  energy-cutoff  :      700.00
  volume of cell :     3556.24
      direct lattice vectors                 reciprocal lattice vectors
    15.263835871  0.000000000  0.000000000     0.065514331  0.000000000  0.000000000
     0.000000000 15.263835871  0.000000000     0.000000000  0.065514331  0.000000000
     0.000000000  0.000000000 15.263835871     0.000000000  0.000000000  0.065514331

  length of vectors
    15.263835871 15.263835871 15.263835871     0.065514331  0.065514331  0.065514331


 
 old parameters found on file WAVECAR:
  energy-cutoff  :      700.00
  volume of cell :     3556.24
      direct lattice vectors                 reciprocal lattice vectors
    15.263835871  0.000000000  0.000000000     0.065514331  0.000000000  0.000000000
     0.000000000 15.263835871  0.000000000     0.000000000  0.065514331  0.000000000
     0.000000000  0.000000000 15.263835871     0.000000000  0.000000000  0.065514331

  length of vectors

 
 k-points in units of 2pi/SCALE and weight: Title                                   
   0.01637858  0.01637858  0.01637858       0.250
  -0.01637858  0.01637858  0.01637858       0.250
   0.01637858 -0.01637858  0.01637858       0.250
  -0.01637858 -0.01637858  0.01637858       0.250
 
 k-points in reciprocal lattice and weights: Title                                   
   0.25000000  0.25000000  0.25000000       0.250
  -0.25000000  0.25000000  0.25000000       0.250
   0.25000000 -0.25000000  0.25000000       0.250
  -0.25000000 -0.25000000  0.25000000       0.250
 
 position of ions in fractional coordinates (direct lattice) 
   0.00107778  0.99567534  0.99472961
   0.00209798  0.99087678  0.50408578
   0.00479833  0.49761201  0.00649961
   0.00863188  0.50320763  0.50581213
   0.49060631  0.00570213  0.00403404
   0.49879145  0.99199296  0.49081802
   0.49211680  0.49745974  0.99275509
   0.49800965  0.49280024  0.49159076
   0.00602099  0.01182893  0.25135899
   0.99525114  0.99446718  0.75853230
   0.99579375  0.49910684  0.24394391
   0.00185414  0.49583124  0.74485849
   0.49458801  0.00711162  0.25564339
   0.50927152  0.00312272  0.74799641
   0.49225948  0.49627393  0.25346500
   0.49487801  0.50596712  0.75246355
   0.00153724  0.25804074  0.00629570
   0.00471133  0.24586147  0.50716830
   0.99483527  0.75915163  0.00125075
   0.00224548  0.75698605  0.49327735
   0.49101500  0.24419630  0.99934566
   0.50643349  0.25364381  0.49975856
   0.49508834  0.75208174  0.99166213
   0.50199684  0.75297780  0.49127721
   0.99549876  0.24401792  0.24512204
   0.99899016  0.25627910  0.74399065
   0.99612678  0.75505481  0.25785904
   0.99088022  0.75618815  0.74877542
   0.50695615  0.23928757  0.24670319
   0.49323500  0.24121318  0.75100695
   0.49476945  0.74980753  0.25480192
   0.50456263  0.74132154  0.75285234
   0.25821214  0.99962041  0.99414643
   0.25026697  0.99152880  0.49312671
   0.25654424  0.49676150  0.00915042
   0.24190563  0.49254814  0.49564014
   0.74811095  0.99659048  0.99547915
   0.75158132  0.00530107  0.49350160
   0.74801084  0.49675831  0.99535881
   0.75363606  0.50491701  0.49266761
   0.24280627  0.00368319  0.25704242
   0.25309352  0.99359583  0.75519347
   0.25304026  0.49019254  0.24283510
   0.25952959  0.49443959  0.75165076
   0.75408055  0.00812394  0.25796086
   0.74323678  0.00084379  0.75859110
   0.75661680  0.49657995  0.25488616
   0.75100112  0.49230059  0.75573691
   0.25849515  0.25388817  0.00678191
   0.24271712  0.25221028  0.49816989
   0.25564823  0.75033944  0.99253211
   0.24707467  0.75234172  0.49248679
   0.74518363  0.25985343  0.99443369
   0.74490975  0.24307464  0.50282798
   0.75536252  0.75947398  0.99758348
   0.75311824  0.74235569  0.50770996
   0.25123095  0.25966396  0.24494912
   0.25809058  0.25455399  0.75511804
   0.25548401  0.74760464  0.25509408
   0.24794253  0.75395631  0.75478633
   0.74446530  0.24222426  0.24837906
   0.74797730  0.25970216  0.75766716
   0.75660455  0.75417596  0.25284470
   0.75918135  0.74685352  0.74409684
   0.01443759  0.50961359  0.12577584
   0.01050085  0.50930920  0.62523060
   0.98284792  0.99152612  0.87634266
   0.48018876  0.01187460  0.37367467
   0.49198038  0.51172193  0.37392100
   0.49378686  0.50861059  0.87535930
   0.98729524  0.24644654  0.12645696
   0.98523440  0.24092788  0.62508664
   0.01743845  0.76372746  0.37621150
   0.51166340  0.73418059  0.37345433
   0.51054494  0.74153832  0.87418843
   0.23126198  0.48243836  0.12361524
   0.26803957  0.00551227  0.37468747
   0.26412972  0.00858451  0.87552398
   0.76450959  0.98458980  0.37520555
   0.76641862  0.99786737  0.87622459
   0.75494399  0.48519054  0.37478424
   0.75590922  0.49407706  0.87551786
   0.26253433  0.26818407  0.12427682
   0.76941306  0.74060669  0.62522772
   0.23583281  0.73777105  0.37417705
   0.23864736  0.73994852  0.87401619
   0.72940672  0.25840113  0.87577636
   0.12512267  0.51582041  0.48590280
   0.12412461  0.01787616  0.26788816
   0.62574519  0.98277058  0.76519238
   0.12440356  0.23379280  0.51037606
   0.62553772  0.23765967  0.51305312
   0.62560796  0.23394859  0.23460184
   0.37468022  0.98107149  0.01626747
   0.37414333  0.47984003  0.01066800
   0.37488846  0.48616260  0.23771091
   0.37468096  0.51017225  0.73658937
   0.87582102  0.48936602  0.24024608
   0.37520834  0.26675091  0.98050430
   0.37438132  0.76567281  0.99230442
   0.87542274  0.76286132  0.98664577
   0.37626018  0.23566130  0.76977224
   0.37482562  0.75921374  0.25785375
   0.87374103  0.76538009  0.26400501
   0.87498496  0.73546434  0.77046663
   0.48456992  0.12572848  0.01237675
   0.97807159  0.12577635  0.26346609
   0.48283024  0.12363834  0.23013294
   0.51443197  0.12310922  0.74174017
   0.51770610  0.62511902  0.73730373
   0.01244225  0.37700114  0.00252821
   0.01313958  0.87802860  0.01317996
   0.01997226  0.87608908  0.51640931
   0.50756642  0.37171809  0.48568451
   0.51288593  0.87365093  0.48674362
   0.98766486  0.37584633  0.74709070
   0.98704024  0.87606323  0.73636478
   0.76442511  0.12364382  0.48994722
   0.76627719  0.62614957  0.48620321
   0.76906997  0.12632873  0.26397705
   0.24033668  0.37217080  0.48659343
   0.23230180  0.87280490  0.49395828
   0.73920920  0.37754374  0.01385066
   0.73821183  0.87790601  0.00991691
   0.23364613  0.37237451  0.26970532
   0.25802353  0.37314279  0.76337227
   0.25900913  0.87428205  0.75404474
   0.76969756  0.37512585  0.73929746
   0.01419119  0.01646571  0.12573772
   0.01594893  0.01759371  0.62468733
   0.51883475  0.98545607  0.12622316
   0.51636819  0.98853852  0.62210779
   0.51317926  0.48456448  0.12427565
   0.50925893  0.48554990  0.62272245
   0.98245496  0.98232736  0.37754564
   0.98844976  0.49367241  0.37614627
   0.98733665  0.50164703  0.87545341
   0.48236622  0.00625464  0.87516725
   0.98658508  0.74020812  0.12790452
   0.97986565  0.73681501  0.62198692
   0.48190046  0.27044381  0.12484318
   0.48112097  0.25932410  0.62508757
   0.49734720  0.76426270  0.12474900
   0.49004861  0.76057919  0.62250456
   0.00972907  0.25757244  0.37537078
   0.01382294  0.25099491  0.87541887
   0.01995032  0.76159152  0.87432924
   0.51124309  0.22718345  0.37363097
   0.52543791  0.24052641  0.87622714
   0.23333775  0.99392280  0.12531654
   0.23232554  0.99561564  0.62385519
   0.23441363  0.48838208  0.62459301
   0.73599866  0.01281340  0.12754405
   0.73753947  0.00466616  0.62454934
   0.74303692  0.51839914  0.12588543
   0.74639734  0.51264305  0.62497167
   0.26591794  0.51564086  0.37376494
   0.26099244  0.51659322  0.87670226
   0.26549866  0.25661369  0.62564991
   0.25333933  0.76130185  0.12471189
   0.26103658  0.75220491  0.62309996
   0.77035940  0.24063508  0.12484836
   0.76794328  0.23872584  0.62723531
   0.76226115  0.73938888  0.12676660
   0.24158640  0.22694033  0.37287931
   0.23160248  0.23225639  0.87785650
   0.73676544  0.26682402  0.37469035
   0.73298014  0.76583272  0.37590367
   0.73106837  0.76019861  0.87287265
   0.12620757  0.01912362  0.98870108
   0.12302629  0.01910367  0.48136299
   0.12754379  0.51729118  0.98178762
   0.62242581  0.01609162  0.98567927
   0.62445948  0.01457454  0.48467669
   0.62343574  0.51707646  0.99696064
   0.62564112  0.51237419  0.49718805
   0.12363369  0.99181964  0.76245190
   0.12459936  0.51494574  0.26773733
   0.12592749  0.49142277  0.76552874
   0.62439772  0.01388212  0.26454258
   0.62566973  0.50909161  0.25358951
   0.62590349  0.48130533  0.75136280
   0.12702252  0.23520974  0.01259751
   0.12452019  0.73659148  0.01231423
   0.12260516  0.72667178  0.51927334
   0.62271415  0.23846112  0.02336410
   0.62562126  0.73796529  0.01175106
   0.62632025  0.73390849  0.51543566
   0.12493470  0.23000410  0.24094122
   0.12589610  0.25633745  0.73687428
   0.12246316  0.73999689  0.23551488
   0.12241530  0.75939004  0.73099968
   0.62446195  0.26462121  0.72910466
   0.62770071  0.74032994  0.23889141
   0.62844319  0.77010883  0.73482357
   0.37460955  0.98289586  0.52138577
   0.37286253  0.49034548  0.51312372
   0.87501445  0.99600969  0.02219481
   0.87700437  0.98150256  0.51988551
   0.87577773  0.49603324  0.01198868
   0.87741553  0.48524440  0.50938778
   0.37303573  0.98019293  0.23041987
   0.37652758  0.01031893  0.73068775
   0.87655461  0.98143713  0.23402139
   0.87335888  0.01771600  0.73106905
   0.87519325  0.52319762  0.74283874
   0.37503558  0.25095292  0.48616818
   0.37429384  0.76029144  0.48804570
   0.87419109  0.26094351  0.98386212
   0.87472280  0.26316987  0.48624042
   0.87598823  0.77305789  0.48125279
   0.37732244  0.26347647  0.26576648
   0.37495872  0.73404640  0.75451675
   0.87299597  0.27399451  0.26399924
   0.87377988  0.23288258  0.76949459
   0.98873465  0.12675280  0.99438029
   0.98165530  0.11982359  0.48640782
   0.99185217  0.62817674  0.99228609
   0.97959605  0.62861544  0.48895056
   0.48829001  0.12141324  0.51410291
   0.48561974  0.62503744  0.01603912
   0.48903475  0.62412121  0.51362932
   0.00990022  0.12442277  0.75797753
   0.98876587  0.62795940  0.26266710
   0.01512821  0.62776743  0.75776937
   0.49293327  0.62407309  0.22980862
   0.01249251  0.37464553  0.50513414
   0.52098098  0.37237850  0.98918740
   0.51930056  0.87795556  0.98988508
   0.01945797  0.37408790  0.24842111
   0.01345614  0.87839981  0.23632004
   0.51388464  0.37004536  0.26463739
   0.49267512  0.37168307  0.75917301
   0.51468176  0.87617778  0.26003849
   0.48405316  0.87477309  0.75494490
   0.26605044  0.12615967  0.01467894
   0.26273865  0.12110538  0.51079671
   0.26448141  0.62454177  0.01578977
   0.26388518  0.62329124  0.51026692
   0.75812489  0.12808988  0.99810910
   0.75892912  0.62836947  0.99205437
   0.26921724  0.12571750  0.23576273
   0.23924840  0.12395251  0.73974663
   0.25731510  0.62325022  0.23391563
   0.23572779  0.62368108  0.73828285
   0.73420353  0.12712579  0.75229851
   0.75918727  0.62776975  0.26496024
   0.72921181  0.62498871  0.75793337
   0.22828320  0.37463934  0.97697906
   0.22687596  0.87601920  0.99334563
   0.74126510  0.37483805  0.51505818
   0.73514813  0.87408882  0.51047301
   0.23377768  0.87509305  0.25545552
   0.73603265  0.37346442  0.23232965
   0.73453626  0.87659343  0.23481786
   0.76963000  0.87575467  0.74273087
 
 position of ions in cartesian coordinates  (Angst):
   0.01645112 15.19782493 15.18338957
   0.03202315 15.12458057  7.69428267
   0.07324092  7.59546810  0.09920896
   0.13175562  7.68087866  7.72063329
   7.48853427  0.08703640  0.06157499
   7.61347082 15.14161777  7.49176564
   7.51159002  7.59314377 15.15325072
   7.60153752  7.52202204  7.50356065
   0.09190334  0.18055479  3.83670238
  15.19135001 15.17938383 11.57811249
  15.19963229  7.61828487  3.72351975
   0.02830135  7.56828671 11.36939780
   7.54931023  0.10855055  3.90209872
   7.77343692  0.04766472 11.41729440
   7.51376794  7.57504378  3.86884810
   7.55373676  7.72299912 11.48548007
   0.02346421  3.93869151  0.09609649
   0.07191293  3.75278910  7.74133367
  15.18500229 11.58756584  0.01909119
   0.03427469 11.55451082  7.52930446
   7.49477234  3.72737229 15.25384814
   7.73011760  3.87157746  7.62823257
   7.55694722 11.47965225 15.13656804
   7.66239735 11.49332960  7.49877474
  15.19512972  3.72464943  3.74150255
  15.24842183  3.91180216 11.35615122
  15.20471575 11.52503271  3.93591802
  15.12463298 11.54233178 11.42918513
   7.73809547  3.65244622  3.76563693
   7.52865810  3.68183841 11.46324689
   7.55207964 11.44493905  3.88925467
   7.70156120 11.31541030 11.49141460
   3.94130774 15.25804192 15.17448788
   3.82003390 15.13453285  7.52700522
   3.91584913  7.58248601  0.13967048
   3.69240791  7.51817391  7.56536968
  11.41904273 15.21179344 15.19483033
  11.47201389  0.08091473  7.53272737
  11.41751465  7.58243726 15.19299348
  11.50337714  7.70697041  7.51999753
   3.70615513  0.05621955  3.92345332
   3.86317792 15.16608366 11.52714915
   3.86236497  7.48221842  3.70659504
   3.96141701  7.54704476 11.47307385
  11.51016173  0.12400249  3.93747225
  11.34464420  0.01287947 11.57901000
  11.54887467  7.57971491  3.89054048
  11.46315782  7.51439545 11.53544421
   3.94562761  3.87530737  0.10351802
   3.70479424  3.84969636  7.60398350
   3.90217270 11.45305806 15.14984715
   3.77130714 11.48362056  7.51723760
  11.37436064  3.96636012 15.17887270
  11.37018020  3.71025138  7.67508377
  11.52972957 11.59248614 15.22695047
  11.49547324 11.33119535  7.74960145
   3.83474805  3.96346802  3.73886323
   3.93945228  3.88547033 11.52599784
   3.89966599 11.41131446  3.89371411
   3.78455404 11.50826530 11.52093468
  11.36339618  3.69727141  3.79121722
  11.41700270  3.96405115 11.56490716
  11.54868761 11.51161811  3.85937993
  11.58801950 11.39984960 11.35777200
   0.22037295  7.77865814  1.91982184
   0.16028323  7.77401200  9.54341728
  15.00202934 15.13449191 13.37635059
   7.32952246  0.18125198  5.70370886
   7.50950775  7.81083959  5.70746873
   7.53708154  7.76334860 13.36134066
  15.06991253  3.76171949  1.93021831
  15.03845614  3.67748358  9.54121987
   0.26617770 11.65741052  5.74243063
   7.80994623 11.20641206  5.70034561
   7.79287419 11.31871926 13.34346868
   3.52994498  7.36385999  1.88684278
   4.09131197  0.08413837  5.71916806
   4.03163267  0.13103252 13.36385435
  11.66934885 15.02861704  5.72707592
  11.69848799 15.23128375 13.37454827
  11.52334111  7.40586881  5.72064519
  11.53807430  7.54151113 13.36376094
   4.00728085  4.09351755  1.89694097
  11.74419467 11.30449897  9.54337322
   3.59971331 11.26121626  5.71137709
   3.64267408 11.29445275 13.34083968
  11.13354448  3.94419248 13.36770661
   1.90985191  7.87339810  7.41674055
   1.89461765  0.27285875  4.08900090
   9.55127186 15.00084878 11.67977095
   1.89887556  3.56857496  7.79029643
   9.54810515  3.62759820  7.83115854
   9.54917724  3.57095286  3.58092404
   5.71905746 14.97491423  0.24830397
   5.71086239  7.32419942  0.16283454
   5.72223598  7.42070614  3.62838037
   5.71906871  7.78718544 11.24317931
  13.36838834  7.46960256  3.66707669
   5.72711854  4.07164213 14.96625677
   5.71449498 11.68710408 15.14637175
  13.36230900 11.64419005 15.05999903
   5.74317360  3.59709542 11.74967709
   5.72127676 11.58851385  3.93583726
  13.33663967 11.68263605  4.02972907
  13.35562684 11.22600697 11.76027612
   7.39639567  1.91909887  0.18891673
  14.92912425  1.91982950  4.02150309
   7.36984151  1.88719534  3.51271144
   7.85220520  1.87911889 11.32180026
   7.90218089  9.54171419 11.25408317
   0.18991640  5.75448360  0.03859021
   0.20056047 13.40208444  0.20117679
   0.30485323 13.37247987  7.88238688
   7.74741060  5.67384390  7.41340859
   7.82860668 13.33526443  7.42957465
  15.07555438  5.73685663 11.40346981
  15.06602021 13.37208532 11.23975114
  11.66805945  1.88727902  7.47847397
  11.69632932  9.55744421  7.42132605
  11.73895785  1.92826099  4.02930236
   3.66845961  5.68075406  7.42728230
   3.54581651 13.32235076  7.53969814
  11.28316793  5.76276572  0.21141422
  11.26794427 13.40021320  0.15137016
   3.56633625  5.68386338  4.11673775
   3.93842875  5.69559029 11.65198906
   3.95347283 13.34489778 11.50961511
  11.74853725  5.72585948 11.28451510
   0.21661196  0.25132983  1.91923999
   0.24344189  0.26854752  9.53512486
   7.91940841 15.04183968  1.92664963
   7.88175924 15.08888974  9.49575118
   7.83308404  7.39631267  1.89692310
   7.77324466  7.41135399  9.50513322
  14.99603131 14.99408364  5.76279472
  15.08753493  7.53533459  5.74143491
  15.07054452  7.65705788 13.36277721
   7.36275875  0.09546980 13.35840923
  15.05907275 11.29841524  1.95231364
  14.95650843 11.24662333  9.49390620
   7.35564946  4.12800988  1.90558583
   7.34375145  3.95828045  9.54123402
   7.59142597 11.66558039  1.90414832
   7.48002154 11.60935588  9.50180741
   0.14850291  3.93154352  5.72959803
   0.21099106  3.83114510 13.36225000
   0.30451841 11.62480792 13.34561809
   7.80353069  3.46769084  5.70304179
   8.02019800  3.67135560 13.37458733
   3.56162911 15.17107454  1.91281106
   3.54617888 15.19691376  9.52242326
   3.57805111  7.45458395  9.53368517
  11.23416276  0.19558164  1.94681140
  11.25768135  0.07122344  9.53301860
  11.34159360  7.91275936  1.92149455
  11.39288649  7.82489937  9.53946499
   4.05892787  7.87065751  5.70508665
   3.98374581  7.88519414 13.38183934
   4.05252791  3.91690928  9.54981758
   3.86692990 11.62038656  1.90358175
   3.98441956 11.48153232  9.51089557
  11.75863938  3.67301443  1.90566488
  11.72176018  3.64387201  9.57401682
  11.63502910 11.28591045  1.93494460
   3.68753516  3.46397989  5.69156865
   3.53514217  3.54512337 13.39945746
  11.24586672  4.07275812  5.71921205
  11.18808856 11.68954498  5.73773189
  11.15890758 11.60354689 13.32338483
   1.92641158  0.29189973 15.09137102
   1.87785309  0.29159522  7.34744570
   1.94680750  7.89584766 14.98584508
   9.50060544  0.24561983 15.04524664
   9.53164698  0.22246335  7.39802539
   9.51602087  7.89257014 15.21744364
   9.54968341  7.82079549  7.58899683
   1.88712441 15.13897214 11.63794071
   1.90186411  7.86004728  4.08669863
   1.92213648  7.50099648 11.68490502
   9.53070428  0.21189437  4.03793449
   9.55012011  7.77069071  3.87074861
   9.55368811  7.34656558 11.46867846
   1.93885082  3.59020281  0.19228627
   1.90065572 11.24321151  0.18796233
   1.87142497 11.09179885  7.92610311
   9.50500665  3.63983134  0.35662585
   9.54938021 11.26418109  0.17936632
   9.56004954 11.20225868  7.86752525
   1.90698274  3.51074479  3.67768729
   1.92165747  3.91269284 11.24752811
   1.86925752 11.29519112  3.59486040
   1.86852697 11.59120496 11.15785910
   9.53168476  4.03913473 11.12893389
   9.58112059 11.30027475  3.64639922
   9.59245365 11.75481476 11.21622641
   5.71797864 15.00276109  7.95834683
   5.69131243  7.48455289  7.83223618
  13.35607693 15.20292849  0.33877790
  13.38645082 14.98149395  7.93544702
  13.36772750  7.57136991  0.18299325
  13.39272669  7.40669089  7.77521149
   5.69395610 14.96150399  3.51709114
   5.74725515  0.15750652 11.15309795
  13.37958571 14.98049527  3.57206413
  13.33080661  0.27041405 11.15891802
  13.35880605  7.98600262 11.33856856
   5.72448159  3.83050418  7.42079123
   5.71315976 11.60496381  7.44944945
  13.34350925  3.98299888 15.01750991
  13.35162522  4.01698170  7.42189395
  13.37094051 11.79982868  7.34576360
   5.75938772  4.02166159  4.05661589
   5.72330842 11.20436380 11.51681987
  13.32526726  4.18220727  4.02964102
  13.33723274  3.55468154 11.74543907
  15.09188347  1.93473398 15.17805754
  14.98382538  1.82896760  7.42444919
  15.13946878  9.58838659 15.14609198
  14.95239332  9.59508291  7.46326104
   7.45317863  1.85323172  7.84718250
   7.41241994  9.54046895  0.24481848
   7.46454622  9.52648368  7.83995367
   0.15111538  1.89916870 11.56964463
  15.09235993  9.58506918  4.00930746
   0.23091450  9.58213897 11.56646724
   7.52405249  9.52574929  3.50776101
   0.19068356  5.71852789  7.71028457
   7.95216818  5.68392426 15.09879418
   7.92651846 13.40096951 15.10944338
   0.29700333  5.71001626  3.79185906
   0.20539237 13.40775053  3.60715028
   7.84385085  5.64831164  4.03938166
   7.52011210  5.67330935 11.58789219
   7.85601786 13.37383382  3.96918482
   7.38850794 13.35239292 11.52335499
   4.06095028  1.92568049  0.22405695
   4.01039964  1.84853261  7.79671720
   4.03700083  9.53290312  0.24101253
   4.02790005  9.51381516  7.78863044
  11.57189384  1.95514285 15.23497343
  11.58416946  9.59132844 15.14255503
   4.10928776  1.91893132  3.59864362
   3.65184831  1.89199074 11.29137114
   3.92761538  9.51318907  3.57044978
   3.59811034  9.51976572 11.26902818
  11.20676212  1.94042721 11.48296104
  11.58810995  9.58217445  4.04430957
  11.13056937  9.53972513 11.56897060
   3.48447737  5.71843341 14.91244809
   3.46299739 13.37141321 15.16226470
  11.31454884  5.72146652  7.86176354
  11.22118043 13.34194826  7.79177617
   3.56834415 13.35727672  3.89923112
  11.23468158  5.70049964  3.54624168
  11.21184089 13.38017817  3.58422132
  11.74750601 13.36737557 11.33692213
 


--------------------------------------------------------------------------------------------------------


 k-point  1 :   0.2500 0.2500 0.2500  plane waves:  149579
 k-point  2 :  -0.2500 0.2500 0.2500  plane waves:  149579
 k-point  3 :   0.2500-0.2500 0.2500  plane waves:  149579
 k-point  4 :  -0.2500-0.2500 0.2500  plane waves:  149579

 maximum and minimum number of plane-waves per node :     18750    18662

 maximum number of plane-waves:    149579
 maximum index in each direction: 
   IXMAX=   33   IYMAX=   33   IZMAX=   32
   IXMIN=  -33   IYMIN=  -33   IZMIN=  -33


 real space projection operators:
  total allocation   :     153964.17 KBytes
  max/ min on nodes  :      20411.08      18042.34


 parallel 3D FFT for wavefunctions:
    minimum data exchange during FFTs selected (reduces bandwidth)
 parallel 3D FFT for charge:
    minimum data exchange during FFTs selected (reduces bandwidth)


 total amount of memory used by VASP MPI-rank0   385825. kBytes
=======================================================================

   base      :      30000. kBytes
   nonlr-proj:      71520. kBytes
   fftplans  :      38726. kBytes
   grid      :      49123. kBytes
   one-center:        995. kBytes
   wavefun   :     195461. kBytes
 
     INWAV:  cpu time  119.1469: real time  159.5619
 Broyden mixing: mesh for mixing (old mesh)
   NGX = 65   NGY = 65   NGZ = 65
  (NGX  =280   NGY  =280   NGZ  =280)
  gives a total of 274625 points

 charge density for first step will be calculated from the start-wavefunctions


--------------------------------------------------------------------------------------------------------


 Maximum index for non-local projection operator         1636
 Maximum index for augmentation-charges         4578 (set IRDMAX)


--------------------------------------------------------------------------------------------------------


 initial charge from wavefunction
 First call to EWALD:  gamma=   0.116
 Maximum number of real-space cells 3x 3x 3
 Maximum number of reciprocal cells 3x 3x 3

    FEWALD:  cpu time    0.0220: real time    0.0220


--------------------------------------- Iteration      1(   1)  ---------------------------------------


    POTLOK:  cpu time    0.6389: real time    0.7603
    SETDIJ:  cpu time    2.5516: real time    2.5705
     EDDAV:  cpu time  140.6896: real time  140.3635
       DOS:  cpu time    0.0040: real time    0.0037
    CHARGE:  cpu time    9.2536: real time    9.2547
    MIXING:  cpu time    0.0080: real time    0.0076
    --------------------------------------------
      LOOP:  cpu time  153.1457: real time  152.9603

 eigenvalue-minimisations  : 13408
 total energy-change (2. order) :-0.1709550E+04  (-0.8280462E-07)
 number of electron    1920.0000027 magnetization      -0.0000000
 augmentation part      495.5011675 magnetization      -0.0000000

 Broyden mixing:
  rms(total) = 0.36225E-03    rms(broyden)= 0.35311E-03
  rms(prec ) = 0.49429E-03
  weight for this iteration     100.00

 Free energy of the ion-electron system (eV)
  ---------------------------------------------------
  alpha Z        PSCENC =      6301.77677421
  Ewald energy   TEWEN  =   -105926.43276547
  -Hartree energ DENC   =    -63095.59334048
  -exchange      EXHF   =         0.00000000
  -V(xc)+E(xc)   XCENC  =      8959.01070312
  PAW double counting   =    144132.31668307  -145120.17799629
  entropy T*S    EENTRO =        -0.00000000
  eigenvalues    EBANDS =    -25379.27618390
  atomic energy  EATOM  =    178418.82573015
  Solvation  Ediel_sol  =         0.00000000
  ---------------------------------------------------
  free energy    TOTEN  =     -1709.55039559 eV

  energy without entropy =    -1709.55039559  energy(sigma->0) =    -1709.55039559


--------------------------------------------------------------------------------------------------------




--------------------------------------- Iteration      1(   2)  ---------------------------------------


    POTLOK:  cpu time    0.7089: real time    0.7306
    SETDIJ:  cpu time    2.5506: real time    2.5731
    EDDIAG:  cpu time   37.8822: real time   37.9044
  RMM-DIIS:  cpu time   47.7927: real time   47.8724
    ORTHCH:  cpu time   14.5548: real time   14.5460
       DOS:  cpu time    0.0020: real time    0.0028
    --------------------------------------------
      LOOP:  cpu time  103.4913: real time  103.6293

 eigenvalue-minimisations  : 12856
 total energy-change (2. order) : 0.3770983E-06  (-0.1711330E-06)
 number of electron    1920.0000027 magnetization      -0.0000000
 augmentation part      495.5011675 magnetization      -0.0000000

 Free energy of the ion-electron system (eV)
  ---------------------------------------------------
  alpha Z        PSCENC =      6301.77677421
  Ewald energy   TEWEN  =   -105926.43276547
  -Hartree energ DENC   =    -63095.59477886
  -exchange      EXHF   =         0.00000000
  -V(xc)+E(xc)   XCENC  =      8959.01064285
  PAW double counting   =    144132.32068020  -145120.18161797
  entropy T*S    EENTRO =        -0.00000000
  eigenvalues    EBANDS =    -25379.27506032
  atomic energy  EATOM  =    178418.82573015
  Solvation  Ediel_sol  =         0.00000000
  ---------------------------------------------------
  free energy    TOTEN  =     -1709.55039521 eV

  energy without entropy =    -1709.55039521  energy(sigma->0) =    -1709.55039521


--------------------------------------------------------------------------------------------------------




 average (electrostatic) potential at core
  the test charge radii are     1.0397  0.7215  0.7167
  (the norm of the test charge is              1.0000)
       1 -58.6636       2 -59.4921       3 -58.5708       4 -58.5425       5 -58.7661
       6 -58.7406       7 -58.3954       8 -58.5147       9 -58.6935      10 -58.6514
      11 -58.5619      12 -58.5831      13 -58.7679      14 -58.6251      15 -58.4472
      16 -58.1391      17 -58.6491      18 -58.5893      19 -58.6540      20 -59.1223
      21 -58.7835      22 -58.6016      23 -58.5217      24 -58.6966      25 -58.6834
      26 -58.5944      27 -59.0912      28 -58.6908      29 -58.7937      30 -58.6009
      31 -58.6859      32 -58.3938      33 -58.6855      34 -58.7461      35 -58.4283
      36 -58.5826      37 -58.6325      38 -58.7162      39 -58.5749      40 -58.6342
      41 -58.7414      42 -58.6451      43 -58.2258      44 -58.4098      45 -58.7450
      46 -58.6001      47 -58.5877      48 -58.5627      49 -58.7356      50 -58.6181
      51 -58.5598      52 -58.7183      53 -58.6070      54 -58.6916      55 -58.6347
      56 -58.6493      57 -58.5810      58 -58.5650      59 -58.6707      60 -58.5924
      61 -58.7775      62 -58.6106      63 -59.3391      64 -58.6684      65 -73.7737
      66 -73.7827      67 -74.0617      68 -74.0855      69 -73.6853      70 -73.5877
      71 -73.8575      72 -73.8089      73 -74.3617      74 -73.8506      75 -73.7017
      76 -73.7677      77 -73.9365      78 -73.8843      79 -73.9301      80 -73.8609
      81 -73.8103      82 -73.7750      83 -74.0309      84 -74.0780      85 -73.8688
      86 -73.7837      87 -73.9599      88 -73.9163      89 -74.0881      90 -73.9759
      91 -73.8042      92 -73.8385      93 -74.1130      94 -74.0594      95 -73.8062
      96 -73.6289      97 -73.7198      98 -73.7496      99 -74.1027     100 -73.7412
     101 -73.8042     102 -73.9235     103 -73.9111     104 -74.2585     105 -74.0058
     106 -74.0811     107 -74.0729     108 -74.0937     109 -73.8021     110 -73.6107
     111 -73.8062     112 -73.8428     113 -74.5400     114 -73.8005     115 -73.8995
     116 -73.7880     117 -73.8581     118 -73.9033     119 -73.8799     120 -74.1117
     121 -73.8014     122 -73.8966     123 -73.7990     124 -73.8298     125 -73.8947
     126 -73.7244     127 -73.7899     128 -73.9345     129 -78.9547     130 -79.2001
     131 -78.9219     132 -78.8579     133 -78.1283     134 -78.1323     135 -79.3642
     136 -78.2774     137 -78.2691     138 -79.0311     139 -78.9425     140 -78.9721
     141 -79.3207     142 -79.1830     143 -78.2712     144 -78.2632     145 -78.3501
     146 -78.3300     147 -79.0105     148 -79.2449     149 -79.2640     150 -78.3621
     151 -78.3629     152 -78.8542     153 -78.4026     154 -78.3786     155 -78.2851
     156 -78.2619     157 -78.6765     158 -78.6307     159 -78.9165     160 -78.3147
     161 -78.2976     162 -78.8579     163 -78.8012     164 -79.1974     165 -78.7937
     166 -78.7866     167 -79.0159     168 -79.0901     169 -78.8832     170 -78.8387
     171 -79.5458     172 -78.7227     173 -78.8064     174 -79.3123     175 -78.7074
     176 -78.9320     177 -78.9813     178 -78.2172     179 -78.6653     180 -79.0510
     181 -78.1470     182 -78.7108     183 -78.8282     184 -78.2303     185 -79.4125
     186 -78.8314     187 -78.2435     188 -79.2826     189 -78.9883     190 -78.7247
     191 -78.5442     192 -78.7419     193 -78.7621     194 -78.4919     195 -78.7098
     196 -79.3231     197 -78.7468     198 -78.9628     199 -79.5482     200 -78.8913
     201 -78.7979     202 -78.8979     203 -78.7795     204 -78.9274     205 -78.8481
     206 -78.9362     207 -78.2932     208 -79.2369     209 -78.9571     210 -78.3102
     211 -79.4294     212 -78.8305     213 -78.8175     214 -78.8682     215 -78.9458
     216 -78.3144     217 -78.9801     218 -78.3288     219 -79.0366     220 -78.2895
     221 -78.8421     222 -78.3117     223 -78.3276     224 -79.1195     225 -78.2961
     226 -78.9128     227 -78.9480     228 -78.7586     229 -78.7718     230 -78.8464
     231 -79.0409     232 -78.7742     233 -78.1964     234 -78.8528     235 -78.2158
     236 -79.2391     237 -78.3189     238 -79.1204     239 -78.3005     240 -78.3240
     241 -78.3196     242 -78.8200     243 -78.2501     244 -78.7953     245 -78.2699
     246 -78.8118     247 -79.1799     248 -78.8139     249 -79.1958     250 -79.1565
     251 -78.3392     252 -78.3576     253 -79.0045     254 -78.8740     255 -79.0912
     256 -79.0119
 
 
 
 E-fermi :  -0.5516     XC(G=0):  -9.2451     alpha+bet : -7.9490


 spin component 1

 k-point     1 :       0.2500    0.2500    0.2500
  band No.  band energies     occupation 
      1     -35.4803      1.00000
      2     -35.4384      1.00000
      3     -35.2960      1.00000
      4     -35.2885      1.00000
      5     -35.2803      1.00000
      6     -35.1286      1.00000
      7     -35.1052      1.00000
      8     -35.0581      1.00000
      9     -35.0101      1.00000
     10     -34.9850      1.00000
     11     -34.9260      1.00000
     12     -34.9017      1.00000
     13     -34.8445      1.00000
     14     -34.8140      1.00000
     15     -34.7850      1.00000
     16     -34.7748      1.00000
     17     -34.7709      1.00000
     18     -34.7652      1.00000
     19     -34.7644      1.00000
     20     -34.7624      1.00000
     21     -34.7614      1.00000
     22     -34.7277      1.00000
     23     -34.7253      1.00000
     24     -34.7223      1.00000
     25     -34.7188      1.00000
     26     -34.7103      1.00000
     27     -34.7070      1.00000
     28     -34.6973      1.00000
     29     -34.6972      1.00000
     30     -34.6921      1.00000
     31     -34.6907      1.00000
     32     -34.6801      1.00000
     33     -34.6771      1.00000
     34     -34.6751      1.00000
     35     -34.6716      1.00000
     36     -34.6704      1.00000
     37     -34.6696      1.00000
     38     -34.6692      1.00000
     39     -34.6660      1.00000
     40     -34.6652      1.00000
     41     -34.6625      1.00000
     42     -34.6559      1.00000
     43     -34.6536      1.00000
     44     -34.6524      1.00000
     45     -34.6475      1.00000
     46     -34.6407      1.00000
     47     -34.6373      1.00000
     48     -34.6304      1.00000
     49     -34.6302      1.00000
     50     -34.6294      1.00000
     51     -34.6290      1.00000
     52     -34.6289      1.00000
     53     -34.6241      1.00000
     54     -34.6204      1.00000
     55     -34.6194      1.00000
     56     -34.6146      1.00000
     57     -34.6137      1.00000
     58     -34.6083      1.00000
     59     -34.6068      1.00000
     60     -34.6046      1.00000
     61     -34.6019      1.00000
     62     -34.5987      1.00000
     63     -34.5982      1.00000
     64     -34.5968      1.00000
     65     -34.5951      1.00000
     66     -34.5941      1.00000
     67     -34.5926      1.00000
     68     -34.5899      1.00000
     69     -34.5896      1.00000
     70     -34.5887      1.00000
     71     -34.5876      1.00000
     72     -34.5867      1.00000
     73     -34.5841      1.00000
     74     -34.5809      1.00000
     75     -34.5774      1.00000
     76     -34.5764      1.00000
     77     -34.5735      1.00000
     78     -34.5725      1.00000
     79     -34.5722      1.00000
     80     -34.5691      1.00000
     81     -34.5683      1.00000
     82     -34.5658      1.00000
     83     -34.5655      1.00000
     84     -34.5625      1.00000
     85     -34.5586      1.00000
     86     -34.5554      1.00000
     87     -34.5544      1.00000
     88     -34.5472      1.00000
     89     -34.5455      1.00000
     90     -34.5441      1.00000
     91     -34.5432      1.00000
     92     -34.5422      1.00000
     93     -34.5416      1.00000
     94     -34.5402      1.00000
     95     -34.5395      1.00000
     96     -34.5336      1.00000
     97     -34.5310      1.00000
     98     -34.5303      1.00000
     99     -34.5293      1.00000
    100     -34.5275      1.00000
    101     -34.5266      1.00000
    102     -34.5206      1.00000
    103     -34.5205      1.00000
    104     -34.5185      1.00000
    105     -34.5179      1.00000
    106     -34.5156      1.00000
    107     -34.5146      1.00000
    108     -34.5104      1.00000
    109     -34.5088      1.00000
    110     -34.5058      1.00000
    111     -34.5044      1.00000
    112     -34.5023      1.00000
    113     -34.5020      1.00000
    114     -34.5010      1.00000
    115     -34.4944      1.00000
    116     -34.4922      1.00000
    117     -34.4900      1.00000
    118     -34.4896      1.00000
    119     -34.4885      1.00000
    120     -34.4803      1.00000
    121     -34.4798      1.00000
    122     -34.4782      1.00000
    123     -34.4769      1.00000
    124     -34.4758      1.00000
    125     -34.4744      1.00000
    126     -34.4719      1.00000
    127     -34.4716      1.00000
    128     -34.4694      1.00000
    129     -34.4691      1.00000
    130     -34.4678      1.00000
    131     -34.4594      1.00000
    132     -34.4580      1.00000
    133     -34.4571      1.00000
    134     -34.4553      1.00000
    135     -34.4517      1.00000
    136     -34.4509      1.00000
    137     -34.4506      1.00000
    138     -34.4494      1.00000
    139     -34.4484      1.00000
    140     -34.4449      1.00000
    141     -34.4439      1.00000
    142     -34.4419      1.00000
    143     -34.4402      1.00000
    144     -34.4392      1.00000
    145     -34.4363      1.00000
    146     -34.4350      1.00000
    147     -34.4305      1.00000
    148     -34.4271      1.00000
    149     -34.4266      1.00000
    150     -34.4246      1.00000
    151     -34.4192      1.00000
    152     -34.4187      1.00000
    153     -34.4164      1.00000
    154     -34.4158      1.00000
    155     -34.4144      1.00000
    156     -34.4074      1.00000
    157     -34.4066      1.00000
    158     -34.4045      1.00000
    159     -34.4031      1.00000
    160     -34.3990      1.00000
    161     -34.3967      1.00000
    162     -34.3947      1.00000
    163     -34.3892      1.00000
    164     -34.3882      1.00000
    165     -34.3848      1.00000
    166     -34.3822      1.00000
    167     -34.3822      1.00000
    168     -34.3793      1.00000
    169     -34.3715      1.00000
    170     -34.3677      1.00000
    171     -34.3672      1.00000
    172     -34.3646      1.00000
    173     -34.3595      1.00000
    174     -34.3489      1.00000
    175     -34.3474      1.00000
    176     -34.3433      1.00000
    177     -34.3353      1.00000
    178     -34.3083      1.00000
    179     -34.2944      1.00000
    180     -34.2925      1.00000
    181     -34.2710      1.00000
    182     -34.2631      1.00000
    183     -34.2567      1.00000
    184     -34.2532      1.00000
    185     -34.2255      1.00000
    186     -34.2198      1.00000
    187     -34.1591      1.00000
    188     -34.1186      1.00000
    189     -34.0856      1.00000
    190     -34.0619      1.00000
    191     -34.0092      1.00000
    192     -34.0022      1.00000
    193     -23.4040      1.00000
    194     -23.2670      1.00000
    195     -23.1605      1.00000
    196     -23.1546      1.00000
    197     -23.1047      1.00000
    198     -23.0879      1.00000
    199     -23.0809      1.00000
    200     -23.0490      1.00000
    201     -23.0027      1.00000
    202     -22.9926      1.00000
    203     -22.9361      1.00000
    204     -22.9299      1.00000
    205     -22.9092      1.00000
    206     -22.8948      1.00000
    207     -22.8735      1.00000
    208     -22.8580      1.00000
    209     -22.8414      1.00000
    210     -22.8291      1.00000
    211     -22.8255      1.00000
    212     -22.8152      1.00000
    213     -22.8109      1.00000
    214     -22.8001      1.00000
    215     -22.7933      1.00000
    216     -22.7884      1.00000
    217     -22.7685      1.00000
    218     -22.7604      1.00000
    219     -22.7519      1.00000
    220     -22.7425      1.00000
    221     -22.7311      1.00000
    222     -22.7213      1.00000
    223     -22.7131      1.00000
    224     -22.7077      1.00000
    225     -22.7029      1.00000
    226     -22.6905      1.00000
    227     -22.6825      1.00000
    228     -22.6778      1.00000
    229     -22.6645      1.00000
    230     -22.6633      1.00000
    231     -22.6561      1.00000
    232     -22.6483      1.00000
    233     -22.6367      1.00000
    234     -22.6322      1.00000
    235     -22.6213      1.00000
    236     -22.6142      1.00000
    237     -22.5985      1.00000
    238     -22.5933      1.00000
    239     -22.5771      1.00000
    240     -22.5637      1.00000
    241     -22.5497      1.00000
    242     -22.5316      1.00000
    243     -22.5244      1.00000
    244     -22.5115      1.00000
    245     -22.4970      1.00000
    246     -22.4849      1.00000
    247     -22.4737      1.00000
    248     -22.4643      1.00000
    249     -22.4630      1.00000
    250     -22.4581      1.00000
    251     -22.4530      1.00000
    252     -22.4486      1.00000
    253     -22.4428      1.00000
    254     -22.4375      1.00000
    255     -22.4268      1.00000
    256     -22.4212      1.00000
    257     -22.4155      1.00000
    258     -22.4107      1.00000
    259     -22.4065      1.00000
    260     -22.4002      1.00000
    261     -22.3841      1.00000
    262     -22.3774      1.00000
    263     -22.3736      1.00000
    264     -22.3695      1.00000
    265     -22.3612      1.00000
    266     -22.3513      1.00000
    267     -22.3425      1.00000
    268     -22.3386      1.00000
    269     -22.3334      1.00000
    270     -22.3214      1.00000
    271     -22.3123      1.00000
    272     -22.3116      1.00000
    273     -22.2984      1.00000
    274     -22.2858      1.00000
    275     -22.2774      1.00000
    276     -22.2705      1.00000
    277     -22.2485      1.00000
    278     -22.2421      1.00000
    279     -22.2284      1.00000
    280     -22.1956      1.00000
    281     -22.1771      1.00000
    282     -22.1536      1.00000
    283     -22.0916      1.00000
    284     -22.0843      1.00000
    285     -22.0753      1.00000
    286     -22.0618      1.00000
    287     -22.0575      1.00000
    288     -22.0459      1.00000
    289     -22.0374      1.00000
    290     -22.0358      1.00000
    291     -22.0198      1.00000
    292     -22.0144      1.00000
    293     -22.0068      1.00000
    294     -22.0062      1.00000
    295     -21.9923      1.00000
    296     -21.9725      1.00000
    297     -21.9664      1.00000
    298     -21.9637      1.00000
    299     -21.9594      1.00000
    300     -21.9578      1.00000
    301     -21.9487      1.00000
    302     -21.9440      1.00000
    303     -21.9267      1.00000
    304     -21.9234      1.00000
    305     -21.9210      1.00000
    306     -21.9174      1.00000
    307     -21.9022      1.00000
    308     -21.8813      1.00000
    309     -21.8774      1.00000
    310     -21.8759      1.00000
    311     -21.8664      1.00000
    312     -21.8631      1.00000
    313     -21.8618      1.00000
    314     -21.8447      1.00000
    315     -21.8362      1.00000
    316     -21.8291      1.00000
    317     -21.8256      1.00000
    318     -21.8235      1.00000
    319     -21.7550      1.00000
    320     -21.7281      1.00000
    321     -17.0499      1.00000
    322     -16.8574      1.00000
    323     -16.7299      1.00000
    324     -16.7054      1.00000
    325     -16.7043      1.00000
    326     -16.6775      1.00000
    327     -16.6554      1.00000
    328     -16.6421      1.00000
    329     -16.6229      1.00000
    330     -16.5955      1.00000
    331     -16.5860      1.00000
    332     -16.5529      1.00000
    333     -16.5463      1.00000
    334     -16.5408      1.00000
    335     -16.5325      1.00000
[...]
   79        1.570   3.466   0.000   5.036
   80        1.569   3.465   0.000   5.035
   81        1.570   3.467   0.000   5.037
   82        1.569   3.470   0.000   5.039
   83        1.569   3.470   0.000   5.040
   84        1.571   3.478   0.000   5.049
   85        1.569   3.464   0.000   5.034
   86        1.569   3.465   0.000   5.035
   87        1.570   3.473   0.000   5.043
   88        1.572   3.475   0.000   5.047
   89        1.570   3.472   0.000   5.042
   90        1.571   3.474   0.000   5.045
   91        1.569   3.465   0.000   5.034
   92        1.569   3.465   0.000   5.034
   93        1.570   3.473   0.000   5.043
   94        1.571   3.469   0.000   5.041
   95        1.570   3.474   0.000   5.043
   96        1.569   3.465   0.000   5.034
   97        1.571   3.475   0.000   5.046
   98        1.569   3.466   0.000   5.035
   99        1.571   3.467   0.000   5.038
  100        1.568   3.464   0.000   5.032
  101        1.569   3.464   0.000   5.033
  102        1.570   3.472   0.000   5.042
  103        1.569   3.467   0.000   5.036
  104        1.570   3.462   0.000   5.032
  105        1.572   3.470   0.000   5.042
  106        1.569   3.471   0.000   5.041
  107        1.572   3.471   0.000   5.043
  108        1.571   3.471   0.000   5.043
  109        1.569   3.468   0.000   5.037
  110        1.570   3.465   0.000   5.035
  111        1.569   3.467   0.000   5.036
  112        1.570   3.466   0.000   5.036
  113        1.573   3.467   0.000   5.039
  114        1.569   3.465   0.000   5.034
  115        1.569   3.468   0.000   5.037
  116        1.568   3.464   0.000   5.032
  117        1.568   3.465   0.000   5.034
  118        1.569   3.464   0.000   5.033
  119        1.569   3.465   0.000   5.034
  120        1.571   3.472   0.000   5.043
  121        1.568   3.463   0.000   5.031
  122        1.568   3.464   0.000   5.032
  123        1.569   3.468   0.000   5.037
  124        1.570   3.467   0.000   5.037
  125        1.573   3.468   0.000   5.041
  126        1.569   3.468   0.000   5.036
  127        1.569   3.467   0.000   5.037
  128        1.571   3.474   0.000   5.045
  129        1.731   4.383   0.000   6.113
  130        1.732   4.373   0.000   6.105
  131        1.731   4.378   0.000   6.109
  132        1.730   4.383   0.000   6.113
  133        1.729   4.375   0.000   6.104
  134        1.730   4.376   0.000   6.106
  135        1.730   4.379   0.000   6.109
  136        1.729   4.377   0.000   6.107
  137        1.729   4.377   0.000   6.106
  138        1.729   4.382   0.000   6.111
  139        1.730   4.382   0.000   6.112
  140        1.730   4.378   0.000   6.109
  141        1.731   4.384   0.000   6.115
  142        1.731   4.387   0.000   6.118
  143        1.729   4.375   0.000   6.105
  144        1.729   4.375   0.000   6.104
  145        1.730   4.377   0.000   6.106
  146        1.729   4.376   0.000   6.105
  147        1.730   4.381   0.000   6.111
  148        1.730   4.387   0.000   6.117
  149        1.731   4.383   0.000   6.114
  150        1.729   4.373   0.000   6.102
  151        1.729   4.374   0.000   6.103
  152        1.729   4.383   0.000   6.112
  153        1.729   4.374   0.000   6.103
  154        1.729   4.373   0.000   6.102
  155        1.730   4.376   0.000   6.105
  156        1.729   4.375   0.000   6.104
  157        1.731   4.378   0.000   6.109
  158        1.730   4.381   0.000   6.111
  159        1.729   4.382   0.000   6.111
  160        1.729   4.377   0.000   6.107
  161        1.730   4.377   0.000   6.107
  162        1.731   4.379   0.000   6.110
  163        1.731   4.379   0.000   6.110
  164        1.730   4.383   0.000   6.113
  165        1.730   4.380   0.000   6.110
  166        1.731   4.378   0.000   6.109
  167        1.730   4.380   0.000   6.110
  168        1.731   4.376   0.000   6.108
  169        1.731   4.381   0.000   6.111
  170        1.730   4.379   0.000   6.109
  171        1.731   4.381   0.000   6.112
  172        1.731   4.380   0.000   6.111
  173        1.730   4.379   0.000   6.109
  174        1.730   4.389   0.000   6.119
  175        1.731   4.383   0.000   6.114
  176        1.730   4.385   0.000   6.115
  177        1.729   4.385   0.000   6.115
  178        1.729   4.372   0.000   6.102
  179        1.731   4.381   0.000   6.112
  180        1.729   4.381   0.000   6.109
  181        1.729   4.374   0.000   6.103
  182        1.731   4.383   0.000   6.114
  183        1.730   4.380   0.000   6.110
  184        1.729   4.373   0.000   6.102
  185        1.732   4.381   0.000   6.113
  186        1.730   4.377   0.000   6.107
  187        1.729   4.373   0.000   6.102
  188        1.731   4.389   0.000   6.119
  189        1.729   4.380   0.000   6.109
  190        1.730   4.380   0.000   6.110
  191        1.730   4.374   0.000   6.104
  192        1.730   4.380   0.000   6.110
  193        1.730   4.376   0.000   6.107
  194        1.730   4.374   0.000   6.104
  195        1.730   4.377   0.000   6.107
  196        1.731   4.385   0.000   6.116
  197        1.730   4.383   0.000   6.113
  198        1.730   4.382   0.000   6.112
  199        1.731   4.384   0.000   6.115
  200        1.730   4.385   0.000   6.114
  201        1.731   4.384   0.000   6.114
  202        1.731   4.374   0.000   6.104
  203        1.730   4.378   0.000   6.108
  204        1.730   4.376   0.000   6.107
  205        1.731   4.378   0.000   6.109
  206        1.731   4.382   0.000   6.113
  207        1.729   4.375   0.000   6.104
  208        1.730   4.390   0.000   6.120
  209        1.729   4.382   0.000   6.112
  210        1.729   4.372   0.000   6.102
  211        1.731   4.384   0.000   6.115
  212        1.730   4.380   0.000   6.110
  213        1.729   4.383   0.000   6.113
  214        1.731   4.377   0.000   6.108
  215        1.730   4.380   0.000   6.110
  216        1.730   4.377   0.000   6.106
  217        1.730   4.377   0.000   6.107
  218        1.730   4.377   0.000   6.107
  219        1.730   4.380   0.000   6.110
  220        1.729   4.372   0.000   6.102
  221        1.729   4.380   0.000   6.109
  222        1.729   4.373   0.000   6.102
  223        1.730   4.377   0.000   6.107
  224        1.730   4.384   0.000   6.114
  225        1.730   4.375   0.000   6.105
  226        1.730   4.382   0.000   6.112
  227        1.729   4.386   0.000   6.115
  228        1.730   4.380   0.000   6.111
  229        1.730   4.380   0.000   6.111
  230        1.730   4.381   0.000   6.111
  231        1.731   4.379   0.000   6.109
  232        1.730   4.380   0.000   6.110
  233        1.729   4.375   0.000   6.103
  234        1.730   4.381   0.000   6.110
  235        1.729   4.372   0.000   6.101
  236        1.730   4.387   0.000   6.117
  237        1.730   4.374   0.000   6.104
  238        1.730   4.388   0.000   6.118
  239        1.730   4.374   0.000   6.103
  240        1.729   4.377   0.000   6.106
  241        1.730   4.378   0.000   6.107
  242        1.730   4.376   0.000   6.107
  243        1.729   4.375   0.000   6.104
  244        1.730   4.381   0.000   6.112
  245        1.729   4.376   0.000   6.105
  246        1.730   4.382   0.000   6.112
  247        1.730   4.382   0.000   6.111
  248        1.731   4.378   0.000   6.109
  249        1.732   4.381   0.000   6.112
  250        1.731   4.385   0.000   6.116
  251        1.729   4.373   0.000   6.102
  252        1.729   4.373   0.000   6.102
  253        1.730   4.384   0.000   6.114
  254        1.731   4.381   0.000   6.112
  255        1.731   4.377   0.000   6.108
  256        1.730   4.384   0.000   6.114
--------------------------------------------------
tot        342.3311196.014 112.7441651.089
 


 magnetization (x)
 
# of ion       s       p       d       tot
------------------------------------------
    1        0.000   0.000  -0.000  -0.000
    2       -0.000  -0.000  -0.000  -0.000
    3        0.000  -0.000   0.000   0.000
    4        0.000   0.000   0.000   0.000
    5        0.000   0.000  -0.000  -0.000
    6        0.000  -0.000  -0.000  -0.000
    7       -0.000  -0.000   0.000   0.000
    8        0.000   0.000   0.000   0.000
    9        0.000   0.000   0.000   0.000
   10        0.000   0.000   0.000   0.000
   11        0.000   0.000   0.000   0.000
   12        0.000   0.000   0.000   0.000
   13        0.000   0.000   0.000   0.000
   14        0.000  -0.000  -0.000  -0.000
   15        0.000   0.000   0.000   0.000
   16        0.000   0.000   0.000   0.000
   17        0.000   0.000   0.000   0.000
   18       -0.000   0.000  -0.000  -0.000
   19        0.000  -0.000   0.000   0.000
   20        0.000  -0.000   0.000   0.000
   21       -0.000   0.000  -0.000  -0.000
   22        0.000   0.000   0.000   0.000
   23       -0.000  -0.000  -0.000  -0.000
   24       -0.000   0.000  -0.000  -0.000
   25        0.000   0.000   0.000   0.000
   26        0.000  -0.000   0.000   0.000
   27       -0.000  -0.000  -0.000  -0.000
   28        0.000  -0.000  -0.000  -0.000
   29        0.000   0.000   0.000   0.000
   30        0.000  -0.000   0.000   0.000
   31        0.000  -0.000  -0.000  -0.000
   32        0.000   0.000   0.000   0.000
   33        0.000  -0.000   0.000   0.000
   34        0.000  -0.000   0.000   0.000
   35        0.000  -0.000   0.000   0.000
   36        0.000   0.000  -0.000  -0.000
   37       -0.000   0.000  -0.000  -0.000
   38        0.000   0.000   0.000   0.000
   39        0.000   0.000  -0.000   0.000
   40       -0.000   0.000  -0.000  -0.000
   41       -0.000  -0.000  -0.000  -0.000
   42        0.000   0.000  -0.000   0.000
   43        0.000  -0.000   0.000   0.000
   44       -0.000   0.000  -0.000  -0.000
   45        0.000   0.000  -0.000  -0.000
   46        0.000  -0.000  -0.000  -0.000
   47       -0.000   0.000  -0.000  -0.000
   48       -0.000  -0.000  -0.000  -0.000
   49       -0.000  -0.000   0.000   0.000
   50        0.000   0.000   0.000   0.000
   51       -0.000   0.000   0.000   0.000
   52        0.000   0.000   0.000   0.000
   53       -0.000  -0.000   0.000  -0.000
   54        0.000  -0.000   0.000   0.000
   55        0.000  -0.000   0.000   0.000
   56       -0.000   0.000  -0.000  -0.000
   57       -0.000  -0.000   0.000   0.000
   58        0.000  -0.000   0.000   0.000
   59       -0.000  -0.000  -0.000  -0.000
   60        0.000  -0.000   0.000   0.000
   61        0.000   0.000   0.000   0.000
   62       -0.000  -0.000  -0.000  -0.000
   63       -0.000   0.000   0.000   0.000
   64        0.000   0.000  -0.000  -0.000
   65       -0.000  -0.000   0.000  -0.000
   66        0.000  -0.000   0.000  -0.000
   67       -0.000  -0.000   0.000  -0.000
   68       -0.000  -0.000   0.000  -0.000
   69       -0.000  -0.000   0.000  -0.000
   70       -0.000  -0.000   0.000  -0.000
   71       -0.000  -0.000   0.000  -0.000
   72       -0.000  -0.000   0.000  -0.000
   73       -0.000   0.000   0.000   0.000
   74       -0.000   0.000   0.000   0.000
   75       -0.000   0.000   0.000   0.000
   76        0.000  -0.000   0.000  -0.000
   77        0.000  -0.000   0.000  -0.000
   78        0.000  -0.000   0.000  -0.000
   79       -0.000  -0.000   0.000  -0.000
   80        0.000   0.000   0.000   0.000
   81       -0.000  -0.000   0.000  -0.000
   82        0.000   0.000   0.000   0.000
   83        0.000   0.000   0.000   0.000
   84        0.000   0.000   0.000   0.000
   85       -0.000  -0.000   0.000  -0.000
   86       -0.000  -0.000   0.000  -0.000
   87        0.000   0.000   0.000   0.000
   88       -0.000  -0.000   0.000  -0.000
   89       -0.000  -0.000   0.000  -0.000
   90        0.000   0.000   0.000   0.000
   91       -0.000  -0.000   0.000  -0.000
   92       -0.000  -0.000   0.000  -0.000
   93        0.000  -0.000   0.000  -0.000
   94       -0.000  -0.000   0.000  -0.000
   95       -0.000  -0.000   0.000  -0.000
   96       -0.000  -0.000   0.000  -0.000
   97       -0.000  -0.000   0.000  -0.000
   98        0.000  -0.000   0.000  -0.000
   99        0.000   0.000   0.000   0.000
  100        0.000   0.000   0.000   0.000
  101       -0.000  -0.000   0.000  -0.000
  102        0.000  -0.000   0.000  -0.000
  103       -0.000   0.000   0.000  -0.000
  104        0.000  -0.000   0.000  -0.000
  105       -0.000  -0.000   0.000  -0.000
  106        0.000   0.000   0.000   0.000
  107        0.000  -0.000   0.000  -0.000
  108        0.000  -0.000   0.000  -0.000
  109        0.000   0.000   0.000   0.000
  110        0.000  -0.000   0.000  -0.000
  111       -0.000  -0.000   0.000  -0.000
  112        0.000   0.000   0.000   0.000
  113       -0.000   0.000   0.000   0.000
  114       -0.000   0.000   0.000   0.000
  115        0.000   0.000   0.000   0.000
  116        0.000   0.000   0.000   0.000
  117        0.000   0.000   0.000   0.000
  118        0.000  -0.000   0.000  -0.000
  119        0.000   0.000   0.000   0.000
  120        0.000  -0.000   0.000  -0.000
  121       -0.000  -0.000   0.000  -0.000
  122       -0.000  -0.000   0.000  -0.000
  123       -0.000  -0.000   0.000  -0.000
  124       -0.000   0.000   0.000   0.000
  125        0.000   0.000   0.000   0.000
  126        0.000   0.000   0.000   0.000
  127       -0.000  -0.000   0.000  -0.000
  128       -0.000   0.000   0.000   0.000
  129       -0.000  -0.000   0.000  -0.000
  130       -0.000  -0.000   0.000  -0.000
  131       -0.000   0.000   0.000   0.000
  132        0.000  -0.000   0.000  -0.000
  133        0.000   0.000   0.000   0.000
  134        0.000   0.000   0.000   0.000
  135       -0.000   0.000   0.000   0.000
  136       -0.000  -0.000   0.000  -0.000
  137        0.000   0.000   0.000   0.000
  138        0.000  -0.000   0.000  -0.000
  139        0.000  -0.000   0.000  -0.000
  140        0.000   0.000   0.000   0.000
  141        0.000   0.000   0.000   0.000
  142       -0.000  -0.000   0.000  -0.000
  143        0.000   0.000   0.000   0.000
  144        0.000  -0.000   0.000  -0.000
  145       -0.000   0.000   0.000  -0.000
  146       -0.000  -0.000   0.000  -0.000
  147       -0.000  -0.000   0.000  -0.000
  148       -0.000  -0.000   0.000  -0.000
  149       -0.000  -0.000   0.000  -0.000
  150        0.000  -0.000   0.000  -0.000
  151        0.000  -0.000   0.000  -0.000
  152        0.000  -0.000   0.000  -0.000
  153        0.000  -0.000   0.000   0.000
  154        0.000  -0.000   0.000   0.000
  155        0.000  -0.000   0.000  -0.000
  156        0.000  -0.000   0.000  -0.000
  157       -0.000  -0.000   0.000  -0.000
  158        0.000   0.000   0.000   0.000
  159       -0.000  -0.000   0.000  -0.000
  160       -0.000   0.000   0.000   0.000
  161        0.000  -0.000   0.000  -0.000
  162        0.000  -0.000   0.000  -0.000
  163        0.000   0.000   0.000   0.000
  164       -0.000  -0.000   0.000  -0.000
  165       -0.000  -0.000   0.000  -0.000
  166       -0.000  -0.000   0.000  -0.000
  167        0.000  -0.000   0.000  -0.000
  168        0.000   0.000   0.000   0.000
  169       -0.000   0.000   0.000   0.000
  170       -0.000  -0.000   0.000  -0.000
  171        0.000  -0.000   0.000  -0.000
  172       -0.000  -0.000   0.000  -0.000
  173        0.000   0.000   0.000   0.000
  174        0.000  -0.000   0.000   0.000
  175       -0.000  -0.000   0.000  -0.000
  176        0.000   0.000   0.000   0.000
  177        0.000  -0.000   0.000  -0.000
  178        0.000  -0.000   0.000  -0.000
  179       -0.000   0.000   0.000   0.000
  180       -0.000  -0.000   0.000  -0.000
  181       -0.000   0.000   0.000   0.000
  182        0.000   0.000   0.000   0.000
  183        0.000  -0.000   0.000  -0.000
  184        0.000   0.000   0.000   0.000
  185        0.000  -0.000   0.000  -0.000
  186       -0.000  -0.000   0.000  -0.000
  187       -0.000   0.000   0.000   0.000
  188        0.000  -0.000   0.000  -0.000
  189        0.000   0.000   0.000   0.000
  190       -0.000  -0.000   0.000  -0.000
  191       -0.000  -0.000   0.000  -0.000
  192        0.000  -0.000   0.000  -0.000
  193       -0.000   0.000   0.000   0.000
  194       -0.000   0.000   0.000  -0.000
  195        0.000  -0.000   0.000  -0.000
  196        0.000  -0.000   0.000  -0.000
  197       -0.000  -0.000   0.000  -0.000
  198        0.000  -0.000   0.000  -0.000
  199        0.000  -0.000   0.000   0.000
  200        0.000   0.000   0.000   0.000
  201       -0.000  -0.000   0.000  -0.000
  202       -0.000   0.000   0.000  -0.000
  203        0.000  -0.000   0.000  -0.000
  204        0.000   0.000   0.000   0.000
  205       -0.000   0.000   0.000   0.000
  206       -0.000  -0.000   0.000  -0.000
  207        0.000   0.000   0.000   0.000
  208       -0.000   0.000   0.000   0.000
  209        0.000  -0.000   0.000  -0.000
  210       -0.000   0.000   0.000   0.000
  211        0.000   0.000   0.000   0.000
  212        0.000  -0.000   0.000  -0.000
  213        0.000  -0.000   0.000  -0.000
  214       -0.000  -0.000   0.000  -0.000
  215        0.000  -0.000   0.000  -0.000
  216       -0.000   0.000   0.000   0.000
  217       -0.000   0.000   0.000   0.000
  218        0.000  -0.000   0.000  -0.000
  219        0.000  -0.000   0.000  -0.000
  220        0.000  -0.000   0.000  -0.000
  221       -0.000   0.000   0.000   0.000
  222        0.000  -0.000   0.000  -0.000
  223       -0.000  -0.000   0.000  -0.000
  224        0.000   0.000   0.000   0.000
  225        0.000   0.000   0.000   0.000
  226       -0.000   0.000   0.000   0.000
  227       -0.000  -0.000   0.000  -0.000
  228       -0.000  -0.000   0.000  -0.000
  229       -0.000  -0.000   0.000  -0.000
  230        0.000   0.000   0.000   0.000
  231        0.000   0.000   0.000   0.000
  232        0.000  -0.000   0.000   0.000
  233       -0.000  -0.000   0.000  -0.000
  234       -0.000   0.000   0.000   0.000
  235        0.000  -0.000   0.000  -0.000
  236        0.000  -0.000   0.000  -0.000
  237        0.000   0.000   0.000   0.000
  238        0.000   0.000   0.000   0.000
  239        0.000  -0.000   0.000  -0.000
  240        0.000  -0.000   0.000  -0.000
  241        0.000   0.000   0.000   0.000
  242        0.000   0.000   0.000   0.000
  243        0.000  -0.000   0.000  -0.000
  244        0.000   0.000   0.000   0.000
  245        0.000   0.000   0.000   0.000
  246        0.000  -0.000   0.000   0.000
  247       -0.000   0.000   0.000   0.000
  248        0.000   0.000   0.000   0.000
  249       -0.000   0.000   0.000   0.000
  250       -0.000   0.000   0.000   0.000
  251       -0.000  -0.000   0.000  -0.000
  252        0.000  -0.000   0.000  -0.000
  253       -0.000  -0.000   0.000  -0.000
  254        0.000  -0.000   0.000  -0.000
  255        0.000   0.000   0.000   0.000
  256       -0.000   0.000   0.000   0.000
--------------------------------------------------
tot          0.000  -0.000   0.000  -0.000
 

 total amount of memory used by VASP MPI-rank0   385825. kBytes
=======================================================================

   base      :      30000. kBytes
   nonlr-proj:      71520. kBytes
   fftplans  :      38726. kBytes
   grid      :      49123. kBytes
   one-center:        995. kBytes
   wavefun   :     195461. kBytes
 
  
  
 General timing and accounting informations for this job:
 ========================================================
  
                  Total CPU time used (sec):      964.628
                            User time (sec):      890.614
                          System time (sec):       74.015
                         Elapsed time (sec):     1047.325
  
                   Maximum memory used (kb):      711640.
                   Average memory used (kb):           0.
  
                          Minor page faults:        39020
                          Major page faults:            2
                 Voluntary context switches:       361064
