 vasp.6.3.0 20Jan22 (build Jan 25 2022 13:20:17) complex                        
  
 executed on             LinuxIFC date 2024.06.12  13:54:06
 running on   80 total cores
 distrk:  each k-point on   80 cores,    1 groups
 distr:  one band on NCORE=   8 cores,   10 groups


--------------------------------------------------------------------------------------------------------


 INCAR:
   SYSTEM = LTO
   ISTART = 1
   ENCUT = 700.0
   IALGO = 38
   EDIFF = 1E-6
   PREC = Accurate
   ISPIN = 2
   LMAXMIX = 4
   ADDGRID = .TRUE.
   LASPH = .TRUE.
   LREAL = Auto
   ROPT = 1E-4 1E-4 1E-4
   GGA = PS
   LDAU = .TRUE.
   LDAUTYPE = 2
   LDAUL = 2   -1    -1
   LDAUU = 4.2  0.0  0.0
   LDAUJ = 0.0  0.0  0.0
   NSW = 100
   EDIFFG = -0.01
   IBRION = 1
   ISIF = 3
   ISMEAR = 0
   SIGMA = 0.01
   ISYM = 0
   LORBIT = 11
   NEDOS = 3001
   NWRITE = 2
   NCORE = 8

 POTCAR:   PAW_PBE Ti_pv 07Sep2000                
 POTCAR:   PAW_PBE O 08Apr2002                    
 POTCAR:    PAW_PBE F 08Apr2002                   
 -----------------------------------------------------------------------------
|                                                                             |
|           W    W    AA    RRRRR   N    N  II  N    N   GGGG   !!!           |
|           W    W   A  A   R    R  NN   N  II  NN   N  G    G  !!!           |
|           W    W  A    A  R    R  N N  N  II  N N  N  G       !!!           |
|           W WW W  AAAAAA  RRRRR   N  N N  II  N  N N  G  GGG   !            |
|           WW  WW  A    A  R   R   N   NN  II  N   NN  G    G                |
|           W    W  A    A  R    R  N    N  II  N    N   GGGG   !!!           |
|                                                                             |
|     You use a magnetic or noncollinear calculation, but did not specify     |
|     the initial magnetic moment with the MAGMOM tag. Note that a            |
|     default of 1 will be used for all atoms. This ferromagnetic setup       |
|     may break the symmetry of the crystal, in particular it may rule        |
|     out finding an antiferromagnetic solution. Thence, we recommend         |
|     setting the initial magnetic moment manually or verifying carefully     |
|     that this magnetic setup is desired.                                    |
|                                                                             |
 -----------------------------------------------------------------------------

 POTCAR:   PAW_PBE Ti_pv 07Sep2000                
   VRHFIN =Ti: d3 s1                                                                                
   LEXCH  = PE                                                                                      
   EATOM  =  1042.3781 eV,   76.6126 Ry                                                             
                                                                                                    
   TITEL  = PAW_PBE Ti_pv 07Sep2000                                                                 
   LULTRA =        F    use ultrasoft PP ?                                                          
   IUNSCR =        1    unscreen: 0-lin 1-nonlin 2-no                                               
   RPACOR =    2.200    partial core radius                                                         
   POMASS =   47.880; ZVAL   =   10.000    mass and valenz                                          
   RCORE  =    2.500    outmost cutoff radius                                                       
   RWIGS  =    2.500; RWIGS  =    1.323    wigner-seitz radius (au A)                               
   ENMAX  =  222.338; ENMIN  =  166.753 eV                                                          
   RCLOC  =    1.701    cutoff for local pot                                                        
   LCOR   =        T    correct aug charges                                                         
   LPAW   =        T    paw PP                                                                      
   EAUG   =  482.848                                                                                
   DEXC   =    -.008                                                                                
   RMAX   =    3.092    core radius for proj-oper                                                   
   RAUG   =    1.300    factor for augmentation sphere                                              
   RDEP   =    2.538    radius for radial grids                                                     
   QCUT   =   -4.042; QGAM   =    8.085    optimization parameters                                  
                                                                                                    
   Description                                                                                      
     l     E      TYP  RCUT    TYP  RCUT                                                            
     1   .000     23  2.300                                                                         
     1  -.100     23  2.300                                                                         
     2   .000     23  2.500                                                                         
     2   .000     23  2.500                                                                         
     0   .000     23  2.500                                                                         
     0  1.500     23  2.500                                                                         
     3   .000      7   .000                                                                         
  local pseudopotential read in
  partial core-charges read in
  atomic valenz-charges read in
  non local Contribution for L=           1  read in
    real space projection operators read in
  non local Contribution for L=           1  read in
    real space projection operators read in
  non local Contribution for L=           2  read in
    real space projection operators read in
  non local Contribution for L=           2  read in
    real space projection operators read in
  non local Contribution for L=           0  read in
    real space projection operators read in
  non local Contribution for L=           0  read in
    real space projection operators read in
    PAW grid and wavefunctions read in
 
   number of l-projection  operators is LMAX  =           6
   number of lm-projection operators is LMMAX =          18
 
 POTCAR:   PAW_PBE O 08Apr2002                    
   VRHFIN =O: s2p4                                                                                  
   LEXCH  = PE                                                                                      
   EATOM  =   432.3788 eV,   31.7789 Ry                                                             
                                                                                                    
   TITEL  = PAW_PBE O 08Apr2002                                                                     
   LULTRA =        F    use ultrasoft PP ?                                                          
   IUNSCR =        0    unscreen: 0-lin 1-nonlin 2-no                                               
   RPACOR =     .000    partial core radius                                                         
   POMASS =   16.000; ZVAL   =    6.000    mass and valenz                                          
   RCORE  =    1.520    outmost cutoff radius                                                       
   RWIGS  =    1.550; RWIGS  =     .820    wigner-seitz radius (au A)                               
   ENMAX  =  400.000; ENMIN  =  300.000 eV                                                          
   ICORE  =        2    local potential                                                             
   LCOR   =        T    correct aug charges                                                         
   LPAW   =        T    paw PP                                                                      
   EAUG   =  605.392                                                                                
   DEXC   =     .000                                                                                
   RMAX   =    2.264    core radius for proj-oper                                                   
   RAUG   =    1.300    factor for augmentation sphere                                              
   RDEP   =    1.550    radius for radial grids                                                     
   QCUT   =   -5.520; QGAM   =   11.041    optimization parameters                                  
                                                                                                    
   Description                                                                                      
     l     E      TYP  RCUT    TYP  RCUT                                                            
     0   .000     23  1.200                                                                         
     0  -.700     23  1.200                                                                         
     1   .000     23  1.520                                                                         
     1   .600     23  1.520                                                                         
     2   .000      7  1.500                                                                         
  local pseudopotential read in
  atomic valenz-charges read in
  non local Contribution for L=           0  read in
    real space projection operators read in
  non local Contribution for L=           0  read in
    real space projection operators read in
  non local Contribution for L=           1  read in
    real space projection operators read in
  non local Contribution for L=           1  read in
    real space projection operators read in
    PAW grid and wavefunctions read in
 
   number of l-projection  operators is LMAX  =           4
   number of lm-projection operators is LMMAX =           8
 
 POTCAR:    PAW_PBE F 08Apr2002                   
   VRHFIN =F: s2p5                                                                                  
   LEXCH  = PE                                                                                      
   EATOM  =   659.6475 eV,   48.4827 Ry                                                             
                                                                                                    
   TITEL  = PAW_PBE F 08Apr2002                                                                     
   LULTRA =        F    use ultrasoft PP ?                                                          
   IUNSCR =        1    unscreen: 0-lin 1-nonlin 2-no                                               
   RPACOR =    1.200    partial core radius                                                         
   POMASS =   18.998; ZVAL   =    7.000    mass and valenz                                          
   RCORE  =    1.520    outmost cutoff radius                                                       
   RWIGS  =    1.500; RWIGS  =    0.794    wigner-seitz radius (au A)                               
   ENMAX  =  400.000; ENMIN  =  300.000 eV                                                          
   ICORE  =        2    local potential                                                             
   LCOR   =        T    correct aug charges                                                         
   LPAW   =        T    paw PP                                                                      
   EAUG   =  613.614                                                                                
   RMAX   =    1.555    core radius for proj-oper                                                   
   RAUG   =    1.300    factor for augmentation sphere                                              
   RDEP   =    1.539    radius for radial grids                                                     
   RDEPT  =    1.299    core radius for aug-charge                                                  
                                                                                                    
   Atomic configuration                                                                             
    4 entries                                                                                       
     n  l   j            E        occ.                                                              
     1  0  0.50      -663.3661   2.0000                                                             
     2  0  0.50       -29.8995   2.0000                                                             
     2  1  0.50       -11.1114   5.0000                                                             
     3  2  1.50       -10.8847   0.0000                                                             
   Description                                                                                      
     l       E           TYP  RCUT    TYP  RCUT                                                     
     0    -29.8995018     23  1.200                                                                 
     0     -9.5240782     23  1.200                                                                 
     1    -11.1113914     23  1.520                                                                 
     1      1.3605826     23  1.520                                                                 
     2    -10.8846608      7  1.500                                                                 
  local pseudopotential read in
  partial core-charges read in
  partial kinetic energy density read in
  atomic valenz-charges read in
  non local Contribution for L=           0  read in
    real space projection operators read in
  non local Contribution for L=           0  read in
    real space projection operators read in
  non local Contribution for L=           1  read in
    real space projection operators read in
  non local Contribution for L=           1  read in
    real space projection operators read in
    PAW grid and wavefunctions read in
 
   number of l-projection  operators is LMAX  =           4
   number of lm-projection operators is LMMAX =           8
 
 Optimization of the real space projectors (new method)

 maximal supplied QI-value         = 15.12
 optimisation between [QCUT,QGAM] = [ 13.45, 27.06] = [ 50.69,205.06] Ry 
 Optimized for a Real-space Cutoff    1.49 Angstroem

   l    n(q)    QCUT    max X(q) W(low)/X(q) W(high)/X(q)  e(spline) 
   1     12    13.455     4.841    0.13E-05    0.83E-06    0.56E-07
   1     12    13.455     5.701    0.32E-04    0.25E-04    0.17E-06
   2     11    13.455     4.569    0.64E-05    0.34E-05    0.50E-07
   2     11    13.455    32.276    0.49E-04    0.38E-04    0.46E-06
   0     12    13.455    30.046    0.17E-04    0.41E-05    0.51E-07
   0     12    13.455    45.433    0.12E-04    0.27E-04    0.38E-06
 Optimization of the real space projectors (new method)

 maximal supplied QI-value         = 24.76
 optimisation between [QCUT,QGAM] = [ 13.37, 26.98] = [ 50.04,203.89] Ry 
 Optimized for a Real-space Cutoff    1.17 Angstroem

   l    n(q)    QCUT    max X(q) W(low)/X(q) W(high)/X(q)  e(spline) 
   0      9    13.368     4.192    0.20E-04    0.58E-05    0.56E-07
   0      9    13.368     8.473    0.60E-04    0.52E-04    0.21E-06
   1      9    13.368     2.474    0.22E-04    0.17E-04    0.28E-07
   1      9    13.368     3.912    0.94E-04    0.97E-04    0.20E-06
 Optimization of the real space projectors (new method)

 maximal supplied QI-value         = 24.76
 optimisation between [QCUT,QGAM] = [ 13.37, 26.98] = [ 50.04,203.89] Ry 
 Optimized for a Real-space Cutoff    1.17 Angstroem

   l    n(q)    QCUT    max X(q) W(low)/X(q) W(high)/X(q)  e(spline) 
   0      9    13.368    14.049    0.39E-04    0.34E-04    0.16E-06
   0      9    13.368     8.945    0.54E-04    0.47E-04    0.20E-06
   1      9    13.368     7.086    0.99E-04    0.10E-03    0.23E-06
   1      9    13.368     6.747    0.86E-04    0.89E-04    0.21E-06
 -----------------------------------------------------------------------------
|                                                                             |
|               ----> ADVICE to this user running VASP <----                  |
|                                                                             |
|     You enforced a specific xc type in the INCAR file but a different       |
|     type was found in the POTCAR file.                                      |
|     I HOPE YOU KNOW WHAT YOU ARE DOING!                                     |
|                                                                             |
 -----------------------------------------------------------------------------

 PAW_PBE Ti_pv 07Sep2000                :
 energy of atom  1       EATOM=-1042.3781
 kinetic energy error for atom=    0.0006 (will be added to EATOM!!)
 PAW_PBE O 08Apr2002                    :
 energy of atom  2       EATOM= -432.3788
 kinetic energy error for atom=    0.0091 (will be added to EATOM!!)
  PAW_PBE F 08Apr2002                   :
 energy of atom  3       EATOM= -659.6475
 kinetic energy error for atom=    0.0140 (will be added to EATOM!!)
 
 
 POSCAR: Ti27 O27 F54
  positions in direct lattice
  velocities in cartesian coordinates
 exchange correlation table for  LEXCH =       14
   RHO(1)=    0.500       N(1)  =     2000
   RHO(2)=  100.500       N(2)  =     4000
 


--------------------------------------------------------------------------------------------------------


 ion  position               nearest neighbor table
   1  0.999  0.001  0.990-  46 1.82  55 1.91  58 1.91  84 1.91  73 1.91  91 2.03
   2  0.013  0.999  0.334-  37 1.75  56 1.93  59 1.93  92 1.95  91 1.95  85 2.07
   3  1.000  0.000  0.676-  46 1.82  86 1.91  57 1.91  60 1.91  74 1.91  92 2.02
   4  0.006  0.344  0.992-  28 1.80  47 1.85  38 1.89  87 2.03  93 2.04  55 2.10
   5  0.990  0.344  0.334-  29 1.80  44 1.83  93 1.95  94 1.95  75 2.05  56 2.09
   6  1.000  0.343  0.678-  47 1.81  30 1.83  88 1.94  76 1.94  94 2.06  57 2.09
   7  0.992  0.657  0.009-  28 1.83  48 1.84  45 1.86  77 2.04  96 2.06  58 2.10
   8  0.006  0.658  0.323-  48 1.81  29 1.85  39 1.90  89 2.04  95 2.06  59 2.07
   9  0.010  0.657  0.666-  30 1.81  40 1.82  95 1.94  96 1.95  90 2.04  60 2.09
  10  0.343  0.992  0.008-  49 1.84  41 1.84  33 1.85  98 2.06  61 2.06  73 2.09
  11  0.329  0.009  0.323-  49 1.82  31 1.83  37 1.92  78 2.02  97 2.06  65 2.07
  12  0.343  0.011  0.667-  32 1.80  42 1.84  97 1.94  98 1.95  66 2.06  74 2.09
  13  0.320  0.334  1.000-  38 1.76 100 1.93  99 1.93  62 1.93  61 1.93  79 2.09
  14  0.334  0.322  0.344-  50 1.80  31 1.81  80 1.95  75 1.96  99 2.07  63 2.08
  15  0.343  0.325  0.657-  50 1.84  43 1.86  32 1.86  64 2.04  76 2.04 100 2.06
  16  0.335  0.678  0.990-  33 1.79  51 1.83  77 1.95  81 1.95 101 2.06  62 2.07
  17  0.320  0.667  0.334-  39 1.76 102 1.93  65 1.93  63 1.93 101 1.93  82 2.09
  18  0.324  0.667  0.677-  51 1.81  40 1.83  64 1.94  66 1.94  83 2.05 102 2.06
  19  0.654  0.006  0.006-  41 1.80  52 1.87  34 1.90  72 2.01 104 2.04  84 2.10
  20  0.668  0.993  0.322-  52 1.79  35 1.88  85 1.94  78 1.95  67 2.01 103 2.07
  21  0.656  0.991  0.666-  42 1.81  36 1.83 103 1.95 104 1.96  68 2.05  86 2.09
  22  0.666  0.321  1.000-  34 1.77 105 1.93  79 1.93 106 1.94  87 1.94  69 2.05
  23  0.676  0.334  0.344-  53 1.81  44 1.82  70 1.95  67 1.96  80 2.04 105 2.06
  24  0.656  0.333  0.658-  43 1.80  53 1.83  71 1.95  68 1.96 106 2.06  88 2.06
  25  0.677  0.665  0.990-  45 1.80  54 1.83  69 1.95  72 1.95  81 2.06 107 2.07
  26  0.665  0.678  0.334-  35 1.78  82 1.92 108 1.93  89 1.93 107 1.93  70 2.05
  27  0.666  0.677  0.677-  54 1.81  36 1.83  83 1.95  90 1.95  71 2.05 108 2.07
  28  0.000  0.500  0.997-   4 1.80   7 1.83
  29  0.002  0.499  0.336-   5 1.80   8 1.85
  30  0.998  0.500  0.668-   9 1.81   6 1.83
  31  0.334  0.166  0.338-  14 1.81  11 1.83
  32  0.326  0.165  0.665-  12 1.80  15 1.86
  33  0.330  0.833  1.000-  16 1.79  10 1.85
  34  0.670  0.168  0.996-  22 1.77  19 1.90
  35  0.668  0.832  0.341-  26 1.78  20 1.88
  36  0.667  0.834  0.659-  21 1.83  27 1.83
  37  0.164  0.991  0.334-   2 1.75  11 1.92
  38  0.168  0.329  0.003-  13 1.76   4 1.89
  39  0.168  0.675  0.341-  17 1.76   8 1.90
  40  0.167  0.671  0.662-   9 1.82  18 1.83
  41  0.500  0.001  0.988-  19 1.80  10 1.84
  42  0.501  0.004  0.673-  21 1.81  12 1.84
  43  0.502  0.331  0.675-  24 1.80  15 1.86
  44  0.833  0.331  0.333-  23 1.82   5 1.83
  45  0.832  0.670  0.998-  25 1.80   7 1.86
  46  0.001  0.005  0.833-   3 1.82   1 1.82
  47  0.996  0.323  0.833-   6 1.81   4 1.85
  48  0.002  0.672  0.168-   8 1.81   7 1.84
  49  0.338  0.002  0.167-  11 1.82  10 1.84
  50  0.335  0.340  0.499-  14 1.80  15 1.84
  51  0.339  0.664  0.833-  18 1.81  16 1.83
  52  0.664  0.998  0.168-  20 1.79  19 1.87
  53  0.662  0.332  0.500-  23 1.81  24 1.83
  54  0.659  0.666  0.833-  27 1.81  25 1.83
  55  0.990  0.164  0.009-   1 1.91   4 2.10
  56  0.005  0.165  0.333-   2 1.93   5 2.09
  57  0.007  0.164  0.659-   3 1.91   6 2.09
  58  0.009  0.837  0.998-   1 1.91   7 2.10
  59  0.986  0.835  0.338-   2 1.93   8 2.07
  60  0.992  0.836  0.665-   3 1.91   9 2.09
  61  0.337  0.168  0.993-  13 1.93  10 2.06
  62  0.335  0.500  0.006-  13 1.93  16 2.07
  63  0.331  0.501  0.327-  17 1.93  14 2.08
  64  0.331  0.500  0.667-  18 1.94  15 2.04
  65  0.345  0.831  0.334-  17 1.93  11 2.07
  66  0.338  0.834  0.666-  18 1.94  12 2.06
  67  0.660  0.167  0.330-  23 1.96  20 2.01
  68  0.674  0.166  0.676-  24 1.96  21 2.05
  69  0.665  0.498  0.005-  25 1.95  22 2.05
  70  0.666  0.502  0.328-  23 1.95  26 2.05
  71  0.673  0.501  0.666-  24 1.95  27 2.05
  72  0.664  0.833  0.001-  25 1.95  19 2.01
  73  0.164  0.011  0.005-   1 1.91  10 2.09
  74  0.164  0.990  0.660-   3 1.91  12 2.09
  75  0.166  0.332  0.327-  14 1.96   5 2.05
  76  0.167  0.336  0.669-   6 1.94  15 2.04
  77  0.167  0.663  0.998-  16 1.95   7 2.04
  78  0.502  0.998  0.344-  20 1.95  11 2.02
  79  0.500  0.335  0.993-  22 1.93  13 2.09
  80  0.501  0.339  0.326-  14 1.95  23 2.04
  81  0.501  0.665  0.010-  16 1.95  25 2.06
  82  0.500  0.662  0.332-  26 1.92  17 2.09
  83  0.500  0.662  0.657-  27 1.95  18 2.05
  84  0.835  0.991  0.002-   1 1.91  19 2.10
  85  0.835  0.008  0.335-  20 1.94   2 2.07
  86  0.836  0.005  0.663-   3 1.91  21 2.09
  87  0.832  0.336  0.009-  22 1.94   4 2.03
  88  0.834  0.328  0.661-   6 1.94  24 2.06
  89  0.831  0.663  0.334-  26 1.93   8 2.04
  90  0.834  0.668  0.668-  27 1.95   9 2.04
  91  0.996  0.996  0.166-   2 1.95   1 2.03
  92  0.997  1.000  0.501-   2 1.95   3 2.02
  93  0.000  0.327  0.167-   5 1.95   4 2.04
  94  0.005  0.326  0.501-   5 1.95   6 2.06
  95  0.991  0.674  0.500-   9 1.94   8 2.06
  96  0.002  0.678  0.833-   9 1.95   7 2.06
  97  0.333  0.991  0.500-  12 1.94  11 2.06
  98  0.317  0.999  0.833-  12 1.95  10 2.06
  99  0.339  0.332  0.165-  13 1.93  14 2.07
 100  0.330  0.340  0.834-  13 1.93  15 2.06
 101  0.332  0.666  0.168-  17 1.93  16 2.06
 102  0.342  0.663  0.500-  17 1.93  18 2.06
 103  0.671  0.012  0.500-  21 1.95  20 2.07
 104  0.682  0.995  0.833-  21 1.96  19 2.04
 105  0.661  0.333  0.166-  22 1.93  23 2.06
 106  0.678  0.341  0.834-  22 1.94  24 2.06
 107  0.666  0.668  0.168-  26 1.93  25 2.07
 108  0.667  0.655  0.499-  26 1.93  27 2.07
 

IMPORTANT INFORMATION: All symmetrisations will be switched off!
NOSYMM: (Re-)initialisation of all symmetry stuff for point group C_1.


----------------------------------------------------------------------------------------

                                     Primitive cell                                     

  volume of cell :    1554.4107

  direct lattice vectors                    reciprocal lattice vectors
    11.588478420 -0.010480211 -0.007242684     0.086292710  0.000078051  0.000053929
    -0.010487888 11.591523784  0.005447251     0.000077994  0.086270024 -0.000040637
    -0.007236731  0.005457356 11.571760808     0.000053973 -0.000040562  0.086417325

  length of vectors
    11.588485423 11.591529809 11.571764358     0.086292762  0.086270069  0.086417351

  position of ions in fractional coordinates (direct lattice)
     0.999473407  0.000945174  0.990344075
     0.013234527  0.998699774  0.333591156
     0.999828142  0.000306399  0.675700707
     0.005791042  0.344234511  0.991570635
     0.990447767  0.344112061  0.334096096
     0.999786854  0.343062158  0.678250149
     0.991721430  0.657173170  0.009324562
     0.006330105  0.657982689  0.323467508
     0.009954166  0.656612934  0.666026095
     0.343187493  0.991581052  0.008426926
     0.328680263  0.008937909  0.323285295
     0.342666281  0.011367676  0.666833132
     0.319714613  0.334207786  0.999958943
     0.334024829  0.322490562  0.344079631
     0.342584862  0.324824291  0.656962588
     0.334574165  0.678445444  0.990389227
     0.319897222  0.666835825  0.334288742
     0.324118396  0.666780648  0.677009771
     0.654492339  0.005851239  0.006403140
     0.667959982  0.993186043  0.322190693
     0.656131380  0.990770568  0.666047382
     0.665677956  0.320647393  0.999904098
     0.675990798  0.334452633  0.343740522
     0.655961622  0.333178759  0.657777292
     0.677421824  0.665049595  0.990002169
     0.665109016  0.678433829  0.334442417
     0.666081614  0.676616960  0.676606811
     0.000218460  0.499719967  0.996885680
     0.001810734  0.499237941  0.336425053
     0.998190071  0.500476562  0.667962236
     0.333974083  0.166244130  0.337755270
     0.325983627  0.165440782  0.665223233
     0.329619075  0.832834699  0.999556596
     0.670016310  0.168463606  0.996353822
     0.668211987  0.831923737  0.340904355
     0.667147919  0.833614379  0.658776834
     0.164377741  0.990746045  0.333530642
     0.167920216  0.329282102  0.002942632
     0.168401982  0.675192160  0.340503919
     0.166588923  0.670995651  0.662066267
     0.500467561  0.001018785  0.987519427
     0.500882956  0.004131780  0.673433031
     0.501797425  0.331483873  0.675144208
     0.832824107  0.330548404  0.332786829
     0.832112529  0.669501670  0.998042023
     0.001173720  0.004855375  0.832691942
     0.995657899  0.323325511  0.833139796
     0.001692147  0.671663027  0.167685493
     0.338053154  0.001817648  0.166763464
     0.335423589  0.340068813  0.498860764
     0.338917210  0.664107283  0.832778769
     0.664151463  0.997640577  0.167766945
     0.662323966  0.332305107  0.499544719
     0.659361610  0.666238105  0.832584886
     0.989988256  0.164156539  0.008581819
     0.004614703  0.164643645  0.332709393
     0.006644455  0.164259643  0.658607391
     0.009470793  0.836780040  0.997805876
     0.985646884  0.834674261  0.337734471
     0.991932761  0.835857394  0.665348046
     0.336717162  0.168492822  0.993340576
     0.335148076  0.500143089  0.005746313
     0.330727294  0.500676752  0.326672098
     0.331381071  0.499818396  0.666783062
     0.345402149  0.831409327  0.334445169
     0.337845491  0.833648277  0.665709967
     0.659803730  0.166559015  0.329975238
     0.674231564  0.166175567  0.675673240
     0.664565451  0.497793644  0.005105117
     0.666151367  0.501972180  0.327988265
     0.672983160  0.500653995  0.666164722
     0.664157318  0.832818795  0.000529293
     0.163715095  0.010973165  0.004866585
     0.163864249  0.989749455  0.659770592
     0.166346345  0.331954547  0.327134814
     0.167019471  0.336087310  0.668969332
     0.167326014  0.663476502  0.997847608
     0.501541229  0.998477523  0.344361688
     0.499570541  0.334602898  0.993357172
     0.500944748  0.338762138  0.325985916
     0.501180472  0.664746504  0.010357523
     0.499850742  0.661943402  0.332252707
     0.499524210  0.662017116  0.657316157
     0.835334164  0.991422170  0.001577842
     0.834660327  0.007915026  0.334753357
     0.835501433  0.005288127  0.663052059
     0.831916949  0.336184737  0.009424555
     0.833796800  0.327934544  0.661177866
     0.830722557  0.662888113  0.334226087
     0.833930711  0.668271939  0.668188395
     0.996082410  0.995867056  0.165725107
     0.996508784  0.999687695  0.501180893
     0.000125945  0.327245590  0.166664406
     0.005436941  0.325994610  0.501149927
     0.990966281  0.673914529  0.499974084
     0.001921563  0.677528201  0.832764696
     0.332876744  0.991097352  0.500470561
     0.316927498  0.998645486  0.832650852
     0.339459062  0.332091415  0.165428411
     0.330050528  0.340466901  0.833946411
     0.331912986  0.665829326  0.167625642
     0.341631563  0.663296193  0.499576597
     0.670531856  0.012211944  0.499831548
     0.681878647  0.994830094  0.833076540
     0.660567543  0.333326757  0.166197831
     0.677799324  0.341355775  0.834408988
     0.665653330  0.668467144  0.168045468
     0.667368699  0.655250538  0.499393126

  ion indices of the primitive-cell ions
   primitive index   ion index
                 1           1
                 2           2
                 3           3
                 4           4
                 5           5
                 6           6
                 7           7
                 8           8
                 9           9
                10          10
                11          11
                12          12
                13          13
                14          14
                15          15
                16          16
                17          17
                18          18
                19          19
                20          20
                21          21
                22          22
                23          23
                24          24
                25          25
                26          26
                27          27
                28          28
                29          29
                30          30
                31          31
                32          32
                33          33
                34          34
                35          35
                36          36
                37          37
                38          38
                39          39
                40          40
                41          41
                42          42
                43          43
                44          44
                45          45
                46          46
                47          47
                48          48
                49          49
                50          50
                51          51
                52          52
                53          53
                54          54
                55          55
                56          56
                57          57
                58          58
                59          59
                60          60
                61          61
                62          62
                63          63
                64          64
                65          65
                66          66
                67          67
                68          68
                69          69
                70          70
                71          71
                72          72
                73          73
                74          74
                75          75
                76          76
                77          77
                78          78
                79          79
                80          80
                81          81
                82          82
                83          83
                84          84
                85          85
                86          86
                87          87
                88          88
                89          89
                90          90
                91          91
                92          92
                93          93
                94          94
                95          95
                96          96
                97          97
                98          98
                99          99
               100         100
               101         101
               102         102
               103         103
               104         104
               105         105
               106         106
               107         107
               108         108

----------------------------------------------------------------------------------------

 
 
 KPOINTS: Title                                   

Automatic generation of k-mesh.
 Grid dimensions read from file:
 generate k-points for:    3    3    3

 Generating k-lattice:

  Cartesian coordinates                     Fractional coordinates (reciprocal lattice)
     0.028764237  0.000026017  0.000017976     0.333333333 -0.000000000 -0.000000000
     0.000025998  0.028756675 -0.000013546    -0.000000000  0.333333333  0.000000000
     0.000017991 -0.000013521  0.028805775    -0.000000000 -0.000000000  0.333333333

  Length of vectors
     0.028764254  0.028756690  0.028805784

  Shift w.r.t. Gamma in fractional coordinates (k-lattice)
     0.000000000  0.000000000  0.000000000

 
 Subroutine IBZKPT returns following result:
 ===========================================
 
 Found     14 irreducible k-points:
 
 Following reciprocal coordinates:
            Coordinates               Weight
  0.000000  0.000000  0.000000      1.000000
  0.333333  0.000000  0.000000      2.000000
 -0.000000  0.333333 -0.000000      2.000000
  0.333333  0.333333  0.000000      2.000000
 -0.333333  0.333333  0.000000      2.000000
 -0.000000  0.000000  0.333333      2.000000
  0.333333 -0.000000  0.333333      2.000000
 -0.333333 -0.000000  0.333333      2.000000
 -0.000000  0.333333  0.333333      2.000000
  0.333333  0.333333  0.333333      2.000000
 -0.333333  0.333333  0.333333      2.000000
 -0.000000 -0.333333  0.333333      2.000000
  0.333333 -0.333333  0.333333      2.000000
 -0.333333 -0.333333  0.333333      2.000000
 
 Following cartesian coordinates:
            Coordinates               Weight
  0.000000  0.000000  0.000000      1.000000
  0.028764  0.000026  0.000018      2.000000
  0.000026  0.028757 -0.000014      2.000000
  0.028790  0.028783  0.000004      2.000000
 -0.028738  0.028731 -0.000032      2.000000
  0.000018 -0.000014  0.028806      2.000000
  0.028782  0.000012  0.028824      2.000000
 -0.028746 -0.000040  0.028788      2.000000
  0.000044  0.028743  0.028792      2.000000
  0.028808  0.028769  0.028810      2.000000
 -0.028720  0.028717  0.028774      2.000000
 -0.000008 -0.028770  0.028819      2.000000
  0.028756 -0.028744  0.028837      2.000000
 -0.028772 -0.028796  0.028801      2.000000
 


--------------------------------------------------------------------------------------------------------




 Dimension of arrays:
   k-points           NKPTS =     14   k-points in BZ     NKDIM =     14   number of bands    NBANDS=    540
   number of dos      NEDOS =   3001   number of ions     NIONS =    108
   non local maximal  LDIM  =      6   non local SUM 2l+1 LMDIM =     18
   total plane-waves  NPLWV = ******
   max r-space proj   IRMAX =   8926   max aug-charges    IRDMAX= 199991
   dimension x,y,z NGX =   100 NGY =  100 NGZ =  100
   dimension x,y,z NGXF=   200 NGYF=  200 NGZF=  200
   support grid    NGXF=   400 NGYF=  400 NGZF=  400
   ions per type =              27  27  54
   NGX,Y,Z   is equivalent  to a cutoff of  14.35, 14.34, 14.37 a.u.
   NGXF,Y,Z  is equivalent  to a cutoff of  28.69, 28.68, 28.73 a.u.

 SYSTEM =  LTO                                     
 POSCAR =  Ti27 O27 F54                            

 Startparameter for this run:
   NWRITE =      2    write-flag & timer
   PREC   = accura    normal or accurate (medium, high low for compatibility)
   ISTART =      0    job   : 0-new  1-cont  2-samecut
   ICHARG =      2    charge: 1-file 2-atom 10-const
   ISPIN  =      2    spin polarized calculation?
   LNONCOLLINEAR =      F non collinear calculations
   LSORBIT =      F    spin-orbit coupling
   INIWAV =      1    electr: 0-lowe 1-rand  2-diag
   LASPH  =      T    aspherical Exc in radial PAW
 Electronic Relaxation 1
   ENCUT  =  700.0 eV  51.45 Ry    7.17 a.u.  25.00 25.01 24.96*2*pi/ulx,y,z
   ENINI  =  700.0     initial cutoff
   ENAUG  =  613.6 eV  augmentation charge cutoff
   NELM   =     60;   NELMIN=  2; NELMDL=  0     # of ELM steps 
   EDIFF  = 0.1E-05   stopping-criterion for ELM
   LREAL  =      T    real-space projection
   NLSPLINE    = F    spline interpolate recip. space projectors
   LCOMPAT=      F    compatible to vasp.4.4
   GGA_COMPAT  = T    GGA compatible to vasp.4.4-vasp.4.6
   LMAXPAW     = -100 max onsite density
   LMAXMIX     =    4 max onsite mixed and CHGCAR
   VOSKOWN=      0    Vosko Wilk Nusair interpolation
   ROPT   =   -0.00010  -0.00010  -0.00010
 Ionic relaxation
   EDIFFG = -.1E-01   stopping-criterion for IOM
   NSW    =    100    number of steps for IOM
   NBLOCK =      1;   KBLOCK =    100    inner block; outer block 
   IBRION =      1    ionic relax: 0-MD 1-quasi-New 2-CG
   NFREE  =      0    steps in history (QN), initial steepest desc. (CG)
   ISIF   =      3    stress and relaxation
   IWAVPR =     11    prediction:  0-non 1-charg 2-wave 3-comb
   ISYM   =      0    0-nonsym 1-usesym 2-fastsym
   LCORR  =      T    Harris-Foulkes like correction to forces

   POTIM  = 0.5000    time-step for ionic-motion
   TEIN   =    0.0    initial temperature
   TEBEG  =    0.0;   TEEND  =   0.0 temperature during run
   SMASS  =  -3.00    Nose mass-parameter (am)
   estimated Nose-frequenzy (Omega)   =  0.10E-29 period in steps = 0.13E+47 mass=  -0.307E-26a.u.
   SCALEE = 1.0000    scale energy and forces
   NPACO  =    256;   APACO  = 10.0  distance and # of slots for P.C.
   PSTRESS=    0.0 pullay stress

  Mass of Ions in am
   POMASS =  47.88 16.00 19.00
  Ionic Valenz
   ZVAL   =  10.00  6.00  7.00
  Atomic Wigner-Seitz radii
   RWIGS  =  -1.00 -1.00 -1.00
  virtual crystal weights 
   VCA    =   1.00  1.00  1.00
   NELECT =     810.0000    total number of electrons
   NUPDOWN=      -1.0000    fix difference up-down

 DOS related values:
   EMIN   =  10.00;   EMAX   =-10.00  energy-range for DOS
   EFERMI =   0.00
   ISMEAR =     0;   SIGMA  =   0.01  broadening in eV -4-tet -1-fermi 0-gaus

 Electronic relaxation 2 (details)
   IALGO  =     38    algorithm
   LDIAG  =      T    sub-space diagonalisation (order eigenvalues)
   LSUBROT=      F    optimize rotation matrix (better conditioning)
   TURBO    =      0    0=normal 1=particle mesh
   IRESTART =      0    0=no restart 2=restart with 2 vectors
   NREBOOT  =      0    no. of reboots
   NMIN     =      0    reboot dimension
   EREF     =   0.00    reference energy to select bands
   IMIX   =      4    mixing-type and parameters
     AMIX     =   0.40;   BMIX     =  1.00
     AMIX_MAG =   1.60;   BMIX_MAG =  1.00
     AMIN     =   0.10
     WC   =   100.;   INIMIX=   1;  MIXPRE=   1;  MAXMIX= -45

 Intra band minimization:
   WEIMIN = 0.0010     energy-eigenvalue tresh-hold
   EBREAK =  0.46E-09  absolut break condition
   DEPER  =   0.30     relativ break condition  

   TIME   =   0.40     timestep for ELM

  volume/ion in A,a.u.               =      14.39        97.13
  Fermi-wavevector in a.u.,A,eV,Ry     =   1.317391  2.489507 23.613158  1.735518
  Thomas-Fermi vector in A             =   2.447435
 
 Write flags
   LWAVE        =      T    write WAVECAR
   LDOWNSAMPLE  =      F    k-point downsampling of WAVECAR
   LCHARG       =      T    write CHGCAR
   LVTOT        =      F    write LOCPOT, total local potential
   LVHAR        =      F    write LOCPOT, Hartree potential only
   LELF         =      F    write electronic localiz. function (ELF)
   LORBIT       =     11    0 simple, 1 ext, 2 COOP (PROOUT), +10 PAW based schemes


 Dipole corrections
   LMONO  =      F    monopole corrections only (constant potential shift)
   LDIPOL =      F    correct potential (dipole corrections)
   IDIPOL =      0    1-x, 2-y, 3-z, 4-all directions 
   EPSILON=  1.0000000 bulk dielectric constant

 LDA+U is selected, type is set to LDAUTYPE =  2
   angular momentum for each species LDAUL =     2   -1   -1
   U (eV)           for each species LDAUU =   4.2  0.0  0.0
   J (eV)           for each species LDAUJ =   0.0  0.0  0.0
 Exchange correlation treatment:
   GGA     =    PS    GGA type
   LEXCH   =    14    internal setting for exchange type
   LIBXC   =     F    Libxc                    
   VOSKOWN =     0    Vosko Wilk Nusair interpolation
   LHFCALC =     F    Hartree Fock is set to
   LHFONE  =     F    Hartree Fock one center treatment
   AEXX    =    0.0000 exact exchange contribution

 Linear response parameters
   LEPSILON=     F    determine dielectric tensor
   LRPA    =     F    only Hartree local field effects (RPA)
   LNABLA  =     F    use nabla operator in PAW spheres
   LVEL    =     F    velocity operator in full k-point grid
   CSHIFT  =0.1000    complex shift for real part using Kramers Kronig
   OMEGAMAX=  -1.0    maximum frequency
   DEG_THRESHOLD= 0.2000000E-02 threshold for treating states as degnerate
   RTIME   =   -0.100 relaxation time in fs
  (WPLASMAI=    0.000 imaginary part of plasma frequency in eV, 0.658/RTIME)
   DFIELD  = 0.0000000 0.0000000 0.0000000 field for delta impulse in time
 
  Optional k-point grid parameters
   LKPOINTS_OPT  =     F    use optional k-point grid
   KPOINTS_OPT_MODE=     1    mode for optional k-point grid
 
 Orbital magnetization related:
   ORBITALMAG=     F  switch on orbital magnetization
   LCHIMAG   =     F  perturbation theory with respect to B field
   DQ        =  0.001000  dq finite difference perturbation B field
   LLRAUG    =     F  two centre corrections for induced B field



--------------------------------------------------------------------------------------------------------


 quasi-Newton-method for relaxation of ions
 charge density and potential will be updated during run
 spin polarized calculation
 Variant of blocked Davidson
 Davidson routine will perform the subspace rotation
 perform sub-space diagonalisation
    after iterative eigenvector-optimisation
 modified Broyden-mixing scheme, WC =      100.0
 initial mixing is a Kerker type mixing with AMIX =  0.4000 and BMIX =      1.0000
 Hartree-type preconditioning will be used
 using additional bands          135
 real space projection scheme for non local part
 use partial core corrections
 calculate Harris-corrections to forces 
   (improved forces if not selfconsistent)
 use gradient corrections 
 use of overlap-Matrix (Vanderbilt PP)
 Gauss-broadening in eV      SIGMA  =   0.01


--------------------------------------------------------------------------------------------------------


  energy-cutoff  :      700.00
  volume of cell :     1554.41
      direct lattice vectors                 reciprocal lattice vectors
    11.588478420 -0.010480211 -0.007242684     0.086292710  0.000078051  0.000053929
    -0.010487888 11.591523784  0.005447251     0.000077994  0.086270024 -0.000040637
    -0.007236731  0.005457356 11.571760808     0.000053973 -0.000040562  0.086417325

  length of vectors
    11.588485423 11.591529809 11.571764358     0.086292762  0.086270069  0.086417351


 
 k-points in units of 2pi/SCALE and weight: Title                                   
   0.00000000  0.00000000  0.00000000       0.037
   0.02876424  0.00002602  0.00001798       0.074
   0.00002600  0.02875667 -0.00001355       0.074
   0.02879023  0.02878269  0.00000443       0.074
  -0.02873824  0.02873066 -0.00003152       0.074
   0.00001799 -0.00001352  0.02880577       0.074
   0.02878223  0.00001250  0.02882375       0.074
  -0.02874625 -0.00003954  0.02878780       0.074
   0.00004399  0.02874315  0.02879223       0.074
   0.02880823  0.02876917  0.02881021       0.074
  -0.02872025  0.02871714  0.02877425       0.074
  -0.00000801 -0.02877020  0.02881932       0.074
   0.02875623 -0.02874418  0.02883730       0.074
  -0.02877224 -0.02879621  0.02880134       0.074
 
 k-points in reciprocal lattice and weights: Title                                   
   0.00000000  0.00000000  0.00000000       0.037
   0.33333333  0.00000000  0.00000000       0.074
  -0.00000000  0.33333333 -0.00000000       0.074
   0.33333333  0.33333333  0.00000000       0.074
  -0.33333333  0.33333333  0.00000000       0.074
  -0.00000000  0.00000000  0.33333333       0.074
   0.33333333 -0.00000000  0.33333333       0.074
  -0.33333333 -0.00000000  0.33333333       0.074
  -0.00000000  0.33333333  0.33333333       0.074
   0.33333333  0.33333333  0.33333333       0.074
  -0.33333333  0.33333333  0.33333333       0.074
  -0.00000000 -0.33333333  0.33333333       0.074
   0.33333333 -0.33333333  0.33333333       0.074
  -0.33333333 -0.33333333  0.33333333       0.074
 
 position of ions in fractional coordinates (direct lattice) 
   0.99947341  0.00094517  0.99034407
   0.01323453  0.99869977  0.33359116
   0.99982814  0.00030640  0.67570071
   0.00579104  0.34423451  0.99157064
   0.99044777  0.34411206  0.33409610
   0.99978685  0.34306216  0.67825015
   0.99172143  0.65717317  0.00932456
   0.00633011  0.65798269  0.32346751
   0.00995417  0.65661293  0.66602610
   0.34318749  0.99158105  0.00842693
   0.32868026  0.00893791  0.32328530
   0.34266628  0.01136768  0.66683313
   0.31971461  0.33420779  0.99995894
   0.33402483  0.32249056  0.34407963
   0.34258486  0.32482429  0.65696259
   0.33457417  0.67844544  0.99038923
   0.31989722  0.66683582  0.33428874
   0.32411840  0.66678065  0.67700977
   0.65449234  0.00585124  0.00640314
   0.66795998  0.99318604  0.32219069
   0.65613138  0.99077057  0.66604738
   0.66567796  0.32064739  0.99990410
   0.67599080  0.33445263  0.34374052
   0.65596162  0.33317876  0.65777729
   0.67742182  0.66504960  0.99000217
   0.66510902  0.67843383  0.33444242
   0.66608161  0.67661696  0.67660681
   0.00021846  0.49971997  0.99688568
   0.00181073  0.49923794  0.33642505
   0.99819007  0.50047656  0.66796224
   0.33397408  0.16624413  0.33775527
   0.32598363  0.16544078  0.66522323
   0.32961908  0.83283470  0.99955660
   0.67001631  0.16846361  0.99635382
   0.66821199  0.83192374  0.34090436
   0.66714792  0.83361438  0.65877683
   0.16437774  0.99074604  0.33353064
   0.16792022  0.32928210  0.00294263
   0.16840198  0.67519216  0.34050392
   0.16658892  0.67099565  0.66206627
   0.50046756  0.00101878  0.98751943
   0.50088296  0.00413178  0.67343303
   0.50179742  0.33148387  0.67514421
   0.83282411  0.33054840  0.33278683
   0.83211253  0.66950167  0.99804202
   0.00117372  0.00485537  0.83269194
   0.99565790  0.32332551  0.83313980
   0.00169215  0.67166303  0.16768549
   0.33805315  0.00181765  0.16676346
   0.33542359  0.34006881  0.49886076
   0.33891721  0.66410728  0.83277877
   0.66415146  0.99764058  0.16776695
   0.66232397  0.33230511  0.49954472
   0.65936161  0.66623811  0.83258489
   0.98998826  0.16415654  0.00858182
   0.00461470  0.16464364  0.33270939
   0.00664446  0.16425964  0.65860739
   0.00947079  0.83678004  0.99780588
   0.98564688  0.83467426  0.33773447
   0.99193276  0.83585739  0.66534805
   0.33671716  0.16849282  0.99334058
   0.33514808  0.50014309  0.00574631
   0.33072729  0.50067675  0.32667210
   0.33138107  0.49981840  0.66678306
   0.34540215  0.83140933  0.33444517
   0.33784549  0.83364828  0.66570997
   0.65980373  0.16655902  0.32997524
   0.67423156  0.16617557  0.67567324
   0.66456545  0.49779364  0.00510512
   0.66615137  0.50197218  0.32798826
   0.67298316  0.50065399  0.66616472
   0.66415732  0.83281880  0.00052929
   0.16371509  0.01097316  0.00486658
   0.16386425  0.98974945  0.65977059
   0.16634634  0.33195455  0.32713481
   0.16701947  0.33608731  0.66896933
   0.16732601  0.66347650  0.99784761
   0.50154123  0.99847752  0.34436169
   0.49957054  0.33460290  0.99335717
   0.50094475  0.33876214  0.32598592
   0.50118047  0.66474650  0.01035752
   0.49985074  0.66194340  0.33225271
   0.49952421  0.66201712  0.65731616
   0.83533416  0.99142217  0.00157784
   0.83466033  0.00791503  0.33475336
   0.83550143  0.00528813  0.66305206
   0.83191695  0.33618474  0.00942456
   0.83379680  0.32793454  0.66117787
   0.83072256  0.66288811  0.33422609
   0.83393071  0.66827194  0.66818839
   0.99608241  0.99586706  0.16572511
   0.99650878  0.99968769  0.50118089
   0.00012595  0.32724559  0.16666441
   0.00543694  0.32599461  0.50114993
   0.99096628  0.67391453  0.49997408
   0.00192156  0.67752820  0.83276470
   0.33287674  0.99109735  0.50047056
   0.31692750  0.99864549  0.83265085
   0.33945906  0.33209141  0.16542841
   0.33005053  0.34046690  0.83394641
   0.33191299  0.66582933  0.16762564
   0.34163156  0.66329619  0.49957660
   0.67053186  0.01221194  0.49983155
   0.68187865  0.99483009  0.83307654
   0.66056754  0.33332676  0.16619783
   0.67779932  0.34135578  0.83440899
   0.66565333  0.66846714  0.16804547
   0.66736870  0.65525054  0.49939313
 
 position of ions in cartesian coordinates  (Angst):
  11.57519924  0.00588597 11.45279103
   0.14047967 11.57813400  3.86558138
  11.58159377 -0.00323924  7.81180719
   0.05632334  3.99555318 11.47605140
  11.47175580  3.98022632  3.86078108
  11.57750207  3.96983664  7.84317610
  11.48558255  7.60729587  0.10429866
   0.06411459  7.62872093  3.74662699
   0.10364730  7.61467487  7.71059931
   3.96656028 11.49038466  0.10043017
   3.80647087  0.10192363  3.73864827
   3.96603589  0.13181662  7.71401360
   3.69426432  3.87608395 11.57079063
   3.86496727  3.73653414  3.98094464
   3.96187629  3.76520341  7.60150209
   3.86292285  7.86611500 11.46181969
   3.69770919  7.72811507  3.86962487
   3.74414658  7.72930159  7.83547976
   7.58446264  0.06100051  0.06938719
   7.72789180 11.50729759  3.72888595
   7.58835324 11.48129906  7.70798582
   7.70359567  3.71527227 11.56757641
   7.82770952  3.87160703  3.97460896
   7.59334261  3.85876462  7.60870548
   7.83614885  7.70724148 11.45478463
   7.69806588  7.85893655  3.86896608
   7.70687970  7.83973340  7.82839367
  -0.00992359  5.79795395 11.53844316
   0.01331308  5.78874548  3.89573661
  11.55742129  5.79447004  7.72499587
   3.86606366  1.92536592  3.90690990
   3.77110506  1.91792474  7.69634434
   3.80381534  9.65582368 11.56877918
   7.75549237  1.95116544 11.52563305
   7.73236804  9.63812122  3.94455571
   7.71771901  9.65946423  7.62291692
   1.89208340 11.48435383  3.86374311
   1.94246502  3.81513754  0.03462893
   1.94197725  7.82659935  3.94268817
   1.91868362  7.77972929  7.66372101
   5.79250043  0.01195351 11.42371942
   5.79955454  0.04631944  7.78920072
   5.80670623  3.84082876  7.81077860
   9.64528915  3.82464765  3.84669828
   9.62867387  7.75727049 11.54672378
   0.00752474  0.06081319  9.63572993
  11.52873987  3.74194739  9.63544444
   0.01135159  7.78649534  1.94406288
   3.91629580  0.01843653  1.92730840
   3.87987229  3.94112289  5.77212051
   3.91454310  7.69900822  9.63787962
   7.68482767 11.55812960  1.94198312
   7.66822674  3.84770745  5.77762514
   7.62798516  7.72034830  9.63332678
  11.47067378  1.89249597  0.09303078
   0.04934289  1.91023808  3.85089695
   0.07051022  1.90754417  7.62209384
   0.09375517  9.70490186 11.55086049
  11.41094958  9.66665989  3.90559047
  11.48141007  9.68209624  7.69661731
   3.89308390  1.95498070 11.49317864
   3.87856922  5.79393945  0.06679199
   3.82501103  5.80192316  3.78050334
   3.83013502  5.79382275  7.71617665
   3.99154533  9.63550629  3.87214676
   3.90155440  9.66334616  7.70553069
   7.64198649  1.92555870  3.81452307
   7.80668543  1.92284934  7.81475107
   7.69604464  5.76324994  0.05697357
   7.71204255  5.81343101  3.79331139
   7.78877917  5.79992518  7.70655181
   7.68783440  9.64668126  0.00585114
   1.89705854  0.12550649  0.05518899
   1.88378235 11.47458762  7.63891208
   1.92185214  3.84790098  3.78612926
   1.92713553  3.89766445  7.74177418
   1.92487428  7.69439565 11.54925608
   5.79913574 11.57049901  3.98667754
   5.77856450  3.87874295 11.49309603
   5.79927543  3.92329839  3.77044819
   5.80087234  7.70022896  0.11984593
   5.78316273  7.66950737  3.84473436
   5.77702555  7.67213923  7.60629362
   9.66984259 11.48334780  0.01760887
   9.66993765  0.08482666  3.86768371
   9.67733653  0.05615973  7.66665736
   9.63705754  3.88822614  0.10486467
   9.65421212  3.79613098  7.64673953
   9.61743942  7.67700118  3.86517859
   9.65214379  7.74119684  7.72971663
  11.53143567 11.53408193  1.91594173
  11.53390901 11.58019519  5.79777357
  -0.00317871  3.79418327  1.93038232
   0.05596019  3.78145225  5.80092348
  11.47310525  7.80403929  5.78207424
   0.00913566  7.85810881  9.64023062
   3.84351867 11.48757115  5.79431346
   3.65620812 11.57704551  9.63838096
   3.92913392  3.84679073  1.91364840
   3.81517759  3.94762233  9.64969256
   3.83817027  7.71541275  1.94094683
   3.94841812  7.68775959  5.78211970
   7.76669872  0.13725548  5.77914119
   7.88547357 11.52899686  9.64064291
   7.65027409  3.85774915  1.92023298
   7.84504435  3.95428377  9.65253159
   7.70568234  7.74249369  1.94340215
   7.72330160  7.59108339  5.77759358
 


--------------------------------------------------------------------------------------------------------


 k-point   1 :   0.0000 0.0000 0.0000  plane waves:   65205
 k-point   2 :   0.3333 0.0000 0.0000  plane waves:   65312
 k-point   3 :  -0.0000 0.3333-0.0000  plane waves:   65314
 k-point   4 :   0.3333 0.3333 0.0000  plane waves:   65394
 k-point   5 :  -0.3333 0.3333 0.0000  plane waves:   65360
 k-point   6 :  -0.0000 0.0000 0.3333  plane waves:   65296
 k-point   7 :   0.3333-0.0000 0.3333  plane waves:   65371
 k-point   8 :  -0.3333-0.0000 0.3333  plane waves:   65354
 k-point   9 :  -0.0000 0.3333 0.3333  plane waves:   65357
 k-point  10 :   0.3333 0.3333 0.3333  plane waves:   65424
 k-point  11 :  -0.3333 0.3333 0.3333  plane waves:   65397
 k-point  12 :  -0.0000-0.3333 0.3333  plane waves:   65370
 k-point  13 :   0.3333-0.3333 0.3333  plane waves:   65417
 k-point  14 :  -0.3333-0.3333 0.3333  plane waves:   65416

 maximum and minimum number of plane-waves per node :      8236     8115

 maximum number of plane-waves:     65424
 maximum index in each direction: 
   IXMAX=   25   IYMAX=   25   IZMAX=   24
   IXMIN=  -25   IYMIN=  -25   IZMIN=  -25


 real space projection operators:
  total allocation   :      54142.20 KBytes
  max/ min on nodes  :       7380.97       6153.67


 parallel 3D FFT for wavefunctions:
    minimum data exchange during FFTs selected (reduces bandwidth)
 parallel 3D FFT for charge:
    minimum data exchange during FFTs selected (reduces bandwidth)


 total amount of memory used by VASP MPI-rank0   298944. kBytes
=======================================================================

   base      :      30000. kBytes
   nonlr-proj:      25336. kBytes
   fftplans  :      18873. kBytes
   grid      :      21088. kBytes
   one-center:        435. kBytes
   wavefun   :     203212. kBytes
 
     INWAV:  cpu time      0.0000: real time      0.0000
 Broyden mixing: mesh for mixing (old mesh)
   NGX = 49   NGY = 51   NGZ = 49
  (NGX  =200   NGY  =200   NGZ  =200)
  gives a total of 122451 points

 initial charge density was supplied:
 charge density of overlapping atoms calculated
 number of electron     810.0000000 magnetization     108.0000000
 keeping initial charge density in first step


--------------------------------------------------------------------------------------------------------


 Maximum index for non-local projection operator         1360
 Maximum index for augmentation-charges         4057 (set IRDMAX)


--------------------------------------------------------------------------------------------------------


 First call to EWALD:  gamma=   0.153
 Maximum number of real-space cells 3x 3x 3
 Maximum number of reciprocal cells 3x 3x 3

    FEWALD:  cpu time      0.0105: real time      0.0105


--------------------------------------- Iteration      1(   1)  ---------------------------------------


    POTLOK:  cpu time      0.1624: real time      0.1655
    SETDIJ:  cpu time      0.9024: real time      0.9047
     EDDAV:  cpu time     88.1017: real time     88.3276
       DOS:  cpu time      0.0077: real time      0.0077
    --------------------------------------------
      LOOP:  cpu time     89.1743: real time     89.4055

 eigenvalue-minimisations  : 30240
 total energy-change (2. order) : 0.1319378E+05  (-0.4643908E+05)
 number of electron     810.0000000 magnetization     108.0000000
 augmentation part      810.0000000 magnetization     108.0000000

 Free energy of the ion-electron system (eV)
  ---------------------------------------------------
  alpha Z        PSCENC =      2565.99546292
  Ewald energy   TEWEN  =    -43330.13687217
  -Hartree energ DENC   =    -27693.42051294
  -exchange      EXHF   =         0.00000000
  -V(xc)+E(xc)   XCENC  =      3762.59978454
  PAW double counting   =     55010.87535266   -55252.78449702
  entropy T*S    EENTRO =        -0.00162461
  eigenvalues    EBANDS =      2860.21474785
  atomic energy  EATOM  =     75270.44210491
  Solvation  Ediel_sol  =         0.00000000
  ---------------------------------------------------
  free energy    TOTEN  =     13193.78394612 eV

  energy without entropy =    13193.78557073  energy(sigma->0) =    13193.78475842


--------------------------------------------------------------------------------------------------------




--------------------------------------- Iteration      1(   2)  ---------------------------------------


     EDDAV:  cpu time     87.7367: real time     88.0095
       DOS:  cpu time      0.0055: real time      0.0056
    --------------------------------------------
      LOOP:  cpu time     87.7422: real time     88.0151

 eigenvalue-minimisations  : 30280
 total energy-change (2. order) :-0.1154554E+05  (-0.1080533E+05)
 number of electron     810.0000000 magnetization     108.0000000
 augmentation part      810.0000000 magnetization     108.0000000

 Free energy of the ion-electron system (eV)
  ---------------------------------------------------
  alpha Z        PSCENC =      2565.99546292
  Ewald energy   TEWEN  =    -43330.13687217
  -Hartree energ DENC   =    -27693.42051294
  -exchange      EXHF   =         0.00000000
  -V(xc)+E(xc)   XCENC  =      3762.59978454
  PAW double counting   =     55010.87535266   -55252.78449702
  entropy T*S    EENTRO =        -0.00147466
  eigenvalues    EBANDS =     -8685.32200302
  atomic energy  EATOM  =     75270.44210491
  Solvation  Ediel_sol  =         0.00000000
  ---------------------------------------------------
  free energy    TOTEN  =      1648.24734520 eV

  energy without entropy =     1648.24881986  energy(sigma->0) =     1648.24808253


--------------------------------------------------------------------------------------------------------




--------------------------------------- Iteration      1(   3)  ---------------------------------------


     EDDAV:  cpu time     93.3161: real time     93.6682
       DOS:  cpu time      0.0027: real time      0.0027
    --------------------------------------------
      LOOP:  cpu time     93.3188: real time     93.6709

 eigenvalue-minimisations  : 32420
 total energy-change (2. order) :-0.2418473E+04  (-0.2272634E+04)
 number of electron     810.0000000 magnetization     108.0000000
 augmentation part      810.0000000 magnetization     108.0000000

 Free energy of the ion-electron system (eV)
  ---------------------------------------------------
  alpha Z        PSCENC =      2565.99546292
  Ewald energy   TEWEN  =    -43330.13687217
  -Hartree energ DENC   =    -27693.42051294
  -exchange      EXHF   =         0.00000000
  -V(xc)+E(xc)   XCENC  =      3762.59978454
  PAW double counting   =     55010.87535266   -55252.78449702
  entropy T*S    EENTRO =        -0.00000000
  eigenvalues    EBANDS =    -11103.79652007
  atomic energy  EATOM  =     75270.44210491
  Solvation  Ediel_sol  =         0.00000000
  ---------------------------------------------------
  free energy    TOTEN  =      -770.22569718 eV

  energy without entropy =     -770.22569718  energy(sigma->0) =     -770.22569718


--------------------------------------------------------------------------------------------------------




--------------------------------------- Iteration      1(   4)  ---------------------------------------


     EDDAV:  cpu time    103.9160: real time    104.2616
       DOS:  cpu time      0.0045: real time      0.0045
    --------------------------------------------
      LOOP:  cpu time    103.9205: real time    104.2660

 eigenvalue-minimisations  : 37320
 total energy-change (2. order) :-0.1536290E+03  (-0.1519522E+03)
 number of electron     810.0000000 magnetization     108.0000000
 augmentation part      810.0000000 magnetization     108.0000000

 Free energy of the ion-electron system (eV)
  ---------------------------------------------------
  alpha Z        PSCENC =      2565.99546292
  Ewald energy   TEWEN  =    -43330.13687217
  -Hartree energ DENC   =    -27693.42051294
  -exchange      EXHF   =         0.00000000
  -V(xc)+E(xc)   XCENC  =      3762.59978454
  PAW double counting   =     55010.87535266   -55252.78449702
  entropy T*S    EENTRO =        -0.00000000
  eigenvalues    EBANDS =    -11257.42554979
  atomic energy  EATOM  =     75270.44210491
  Solvation  Ediel_sol  =         0.00000000
  ---------------------------------------------------
  free energy    TOTEN  =      -923.85472691 eV

  energy without entropy =     -923.85472691  energy(sigma->0) =     -923.85472691


--------------------------------------------------------------------------------------------------------




--------------------------------------- Iteration      1(   5)  ---------------------------------------


     EDDAV:  cpu time    106.1872: real time    106.5782
       DOS:  cpu time      0.0061: real time      0.0062
    CHARGE:  cpu time      3.9968: real time      4.0064
    MIXING:  cpu time      0.0052: real time      0.0056
    --------------------------------------------
      LOOP:  cpu time    110.1954: real time    110.5964

 eigenvalue-minimisations  : 38460
 total energy-change (2. order) :-0.4932267E+01  (-0.4911011E+01)
 number of electron     810.0000011 magnetization      68.7580836
 augmentation part      205.5994241 magnetization      70.5039158

 Broyden mixing:
  rms(total) = 0.10949E+02    rms(broyden)= 0.10949E+02
  rms(prec ) = 0.13041E+02
  weight for this iteration     100.00

 Free energy of the ion-electron system (eV)
  ---------------------------------------------------
  alpha Z        PSCENC =      2565.99546292
  Ewald energy   TEWEN  =    -43330.13687217
  -Hartree energ DENC   =    -27693.42051294
  -exchange      EXHF   =         0.00000000
  -V(xc)+E(xc)   XCENC  =      3762.59978454
  PAW double counting   =     55010.87535266   -55252.78449702
  entropy T*S    EENTRO =        -0.00000000
  eigenvalues    EBANDS =    -11262.35781696
  atomic energy  EATOM  =     75270.44210491
  Solvation  Ediel_sol  =         0.00000000
  ---------------------------------------------------
  free energy    TOTEN  =      -928.78699407 eV

  energy without entropy =     -928.78699407  energy(sigma->0) =     -928.78699407


--------------------------------------------------------------------------------------------------------




--------------------------------------- Iteration      1(   6)  ---------------------------------------


    POTLOK:  cpu time      0.2062: real time      0.3226
    SETDIJ:  cpu time      0.9119: real time      0.9140
     EDDAV:  cpu time    109.4703: real time    109.7336
       DOS:  cpu time      0.0072: real time      0.0072
    CHARGE:  cpu time      4.0813: real time      4.0910
    MIXING:  cpu time      0.0043: real time      0.0043
    --------------------------------------------
      LOOP:  cpu time    114.6810: real time    115.0729

 eigenvalue-minimisations  : 40110
 total energy-change (2. order) : 0.4218400E+03  (-0.1149099E+03)
 number of electron     810.0000011 magnetization      47.0892884
 augmentation part      211.7698894 magnetization      41.6738773

 Broyden mixing:
  rms(total) = 0.32860E+01    rms(broyden)= 0.32853E+01
  rms(prec ) = 0.35898E+01
  weight for this iteration     100.00

 eigenvalues of (default mixing * dielectric matrix)
  average eigenvalue GAMMA=   0.8693
  0.8693

 Free energy of the ion-electron system (eV)
  ---------------------------------------------------
  alpha Z        PSCENC =      2565.99546292
  Ewald energy   TEWEN  =    -43330.13687217
  -Hartree energ DENC   =    -28099.42747140
  -exchange      EXHF   =         0.00000000
  -V(xc)+E(xc)   XCENC  =      3909.31304532
  PAW double counting   =     57651.56487152   -58024.53297354
  entropy T*S    EENTRO =        -0.00000000
  eigenvalues    EBANDS =    -10450.16516771
  atomic energy  EATOM  =     75270.44210491
  Solvation  Ediel_sol  =         0.00000000
  ---------------------------------------------------
  free energy    TOTEN  =      -506.94700015 eV

  energy without entropy =     -506.94700015  energy(sigma->0) =     -506.94700015


--------------------------------------------------------------------------------------------------------




--------------------------------------- Iteration      1(   7)  ---------------------------------------


    POTLOK:  cpu time      0.2206: real time      0.3567
    SETDIJ:  cpu time      0.9065: real time      0.9086
     EDDAV:  cpu time    105.9258: real time    106.1823
       DOS:  cpu time      0.0038: real time      0.0038
    CHARGE:  cpu time      3.9038: real time      3.9132
    MIXING:  cpu time      0.0044: real time      0.0044
    --------------------------------------------
      LOOP:  cpu time    110.9648: real time    111.3691

 eigenvalue-minimisations  : 38410
 total energy-change (2. order) :-0.9509190E+02  (-0.1931789E+02)
 number of electron     810.0000011 magnetization      26.4212383
 augmentation part      207.4916089 magnetization      22.4930676

 Broyden mixing:
  rms(total) = 0.19136E+01    rms(broyden)= 0.19136E+01
  rms(prec ) = 0.21314E+01
  weight for this iteration     100.00

 eigenvalues of (default mixing * dielectric matrix)
  average eigenvalue GAMMA=   0.9764
  1.0992  0.8536

 Free energy of the ion-electron system (eV)
  ---------------------------------------------------
  alpha Z        PSCENC =      2565.99546292
  Ewald energy   TEWEN  =    -43330.13687217
  -Hartree energ DENC   =    -28127.53250048
  -exchange      EXHF   =         0.00000000
  -V(xc)+E(xc)   XCENC  =      3859.89916378
  PAW double counting   =     59237.01398772   -59622.34752580
  entropy T*S    EENTRO =        -0.00000000
  eigenvalues    EBANDS =    -10455.37271739
  atomic energy  EATOM  =     75270.44210491
  Solvation  Ediel_sol  =         0.00000000
  ---------------------------------------------------
  free energy    TOTEN  =      -602.03889652 eV

  energy without entropy =     -602.03889652  energy(sigma->0) =     -602.03889652


--------------------------------------------------------------------------------------------------------




--------------------------------------- Iteration      1(   8)  ---------------------------------------


    POTLOK:  cpu time      0.1858: real time      0.3425
    SETDIJ:  cpu time      0.8828: real time      0.8849
     EDDAV:  cpu time     98.1658: real time     98.4028
       DOS:  cpu time      0.0131: real time      0.0131
    CHARGE:  cpu time      4.1120: real time      4.1222
    MIXING:  cpu time      0.0044: real time      0.0044
    --------------------------------------------
      LOOP:  cpu time    103.3638: real time    103.7699

 eigenvalue-minimisations  : 34800
 total energy-change (2. order) :-0.5551705E+02  (-0.4296472E+01)
 number of electron     810.0000011 magnetization      10.2072863
 augmentation part      209.6052037 magnetization       7.4406145

 Broyden mixing:
  rms(total) = 0.12408E+01    rms(broyden)= 0.12408E+01
  rms(prec ) = 0.13348E+01
  weight for this iteration     100.00

 eigenvalues of (default mixing * dielectric matrix)
  average eigenvalue GAMMA=   1.1729
  1.4151  1.4151  0.6886

 Free energy of the ion-electron system (eV)
  ---------------------------------------------------
  alpha Z        PSCENC =      2565.99546292
  Ewald energy   TEWEN  =    -43330.13687217
  -Hartree energ DENC   =    -27970.46479520
  -exchange      EXHF   =         0.00000000
  -V(xc)+E(xc)   XCENC  =      3823.51063836
  PAW double counting   =     60270.94099084   -60675.11287515
  entropy T*S    EENTRO =        -0.00000000
  eigenvalues    EBANDS =    -10612.73059692
  atomic energy  EATOM  =     75270.44210491
  Solvation  Ediel_sol  =         0.00000000
  ---------------------------------------------------
  free energy    TOTEN  =      -657.55594242 eV

  energy without entropy =     -657.55594242  energy(sigma->0) =     -657.55594242


--------------------------------------------------------------------------------------------------------




--------------------------------------- Iteration      1(   9)  ---------------------------------------


    POTLOK:  cpu time      0.1597: real time      0.3204
    SETDIJ:  cpu time      0.8792: real time      0.8813
     EDDAV:  cpu time     99.9921: real time    100.2316
       DOS:  cpu time      0.0053: real time      0.0053
    CHARGE:  cpu time      3.9736: real time      3.9831
    MIXING:  cpu time      0.0063: real time      0.0063
    --------------------------------------------
      LOOP:  cpu time    105.0161: real time    105.4281

 eigenvalue-minimisations  : 35630
 total energy-change (2. order) :-0.5283909E+02  (-0.7702204E+01)
 number of electron     810.0000011 magnetization       4.7788909
 augmentation part      208.6244148 magnetization       3.8096847

 Broyden mixing:
  rms(total) = 0.51930E+00    rms(broyden)= 0.51917E+00
  rms(prec ) = 0.63570E+00
  weight for this iteration     100.00

 eigenvalues of (default mixing * dielectric matrix)
  average eigenvalue GAMMA=   1.1620
  1.8481  1.4591  0.7578  0.5831

 Free energy of the ion-electron system (eV)
  ---------------------------------------------------
  alpha Z        PSCENC =      2565.99546292
  Ewald energy   TEWEN  =    -43330.13687217
  -Hartree energ DENC   =    -27827.68985144
  -exchange      EXHF   =         0.00000000
  -V(xc)+E(xc)   XCENC  =      3788.70963796
  PAW double counting   =     60904.53659737   -61313.82589006
  entropy T*S    EENTRO =        -0.00000000
  eigenvalues    EBANDS =    -10768.42622442
  atomic energy  EATOM  =     75270.44210491
  Solvation  Ediel_sol  =         0.00000000
  ---------------------------------------------------
  free energy    TOTEN  =      -710.39503494 eV

  energy without entropy =     -710.39503494  energy(sigma->0) =     -710.39503494


--------------------------------------------------------------------------------------------------------




--------------------------------------- Iteration      1(  10)  ---------------------------------------


    POTLOK:  cpu time      0.1716: real time      0.3830
    SETDIJ:  cpu time      0.9044: real time      0.9065
     EDDAV:  cpu time    103.8388: real time    104.0907
       DOS:  cpu time      0.0086: real time      0.0086
    CHARGE:  cpu time      4.0992: real time      4.1091
    MIXING:  cpu time      0.0049: real time      0.0049
    --------------------------------------------
      LOOP:  cpu time    109.0274: real time    109.5027

 eigenvalue-minimisations  : 37380
 total energy-change (2. order) :-0.8820899E+01  (-0.1379661E+01)
 number of electron     810.0000011 magnetization       1.8935754
 augmentation part      209.0843174 magnetization       1.5469994

 Broyden mixing:
  rms(total) = 0.19730E+00    rms(broyden)= 0.19723E+00
  rms(prec ) = 0.22432E+00
  weight for this iteration     100.00

 eigenvalues of (default mixing * dielectric matrix)
  average eigenvalue GAMMA=   1.2162
  2.1646  1.5937  0.9651  0.7688  0.5888

 Free energy of the ion-electron system (eV)
  ---------------------------------------------------
  alpha Z        PSCENC =      2565.99546292
  Ewald energy   TEWEN  =    -43330.13687217
  -Hartree energ DENC   =    -27786.52333297
  -exchange      EXHF   =         0.00000000
  -V(xc)+E(xc)   XCENC  =      3783.69432745
  PAW double counting   =     61025.79659774   -61440.24740353
  entropy T*S    EENTRO =        -0.00000000
  eigenvalues    EBANDS =    -10808.23681821
  atomic energy  EATOM  =     75270.44210491
  Solvation  Ediel_sol  =         0.00000000
  ---------------------------------------------------
  free energy    TOTEN  =      -719.21593387 eV

  energy without entropy =     -719.21593387  energy(sigma->0) =     -719.21593387


--------------------------------------------------------------------------------------------------------




--------------------------------------- Iteration      1(  11)  ---------------------------------------


    POTLOK:  cpu time      0.2076: real time      0.3816
    SETDIJ:  cpu time      0.8816: real time      0.8837
     EDDAV:  cpu time     99.1378: real time     99.3795
       DOS:  cpu time      0.0052: real time      0.0052
    CHARGE:  cpu time      4.0321: real time      4.0418
    MIXING:  cpu time      0.0055: real time      0.0055
    --------------------------------------------
      LOOP:  cpu time    104.2699: real time    104.6973

 eigenvalue-minimisations  : 35330
 total energy-change (2. order) :-0.2251799E+01  (-0.3800739E+00)
 number of electron     810.0000011 magnetization       0.5711279
 augmentation part      209.1057290 magnetization       0.4532330

 Broyden mixing:
  rms(total) = 0.97582E-01    rms(broyden)= 0.97546E-01
  rms(prec ) = 0.11799E+00
  weight for this iteration     100.00

 eigenvalues of (default mixing * dielectric matrix)
  average eigenvalue GAMMA=   1.2411
  2.5524  1.3900  1.3900  0.8041  0.7077  0.6020

 Free energy of the ion-electron system (eV)
  ---------------------------------------------------
  alpha Z        PSCENC =      2565.99546292
  Ewald energy   TEWEN  =    -43330.13687217
  -Hartree energ DENC   =    -27749.89439666
  -exchange      EXHF   =         0.00000000
  -V(xc)+E(xc)   XCENC  =      3781.41520011
  PAW double counting   =     60977.57301276   -61394.06734171
  entropy T*S    EENTRO =        -0.00000000
  eigenvalues    EBANDS =    -10842.79490308
  atomic energy  EATOM  =     75270.44210491
  Solvation  Ediel_sol  =         0.00000000
  ---------------------------------------------------
  free energy    TOTEN  =      -721.46773293 eV

  energy without entropy =     -721.46773293  energy(sigma->0) =     -721.46773293


--------------------------------------------------------------------------------------------------------




--------------------------------------- Iteration      1(  12)  ---------------------------------------


    POTLOK:  cpu time      0.1924: real time      0.3026
    SETDIJ:  cpu time      0.8823: real time      0.8844
     EDDAV:  cpu time     96.1561: real time     96.3878
       DOS:  cpu time      0.0071: real time      0.0072
    CHARGE:  cpu time      4.1284: real time      4.1383
    MIXING:  cpu time      0.0057: real time      0.0057
    --------------------------------------------
      LOOP:  cpu time    101.3720: real time    101.7260

 eigenvalue-minimisations  : 33640
 total energy-change (2. order) :-0.1942629E-01  (-0.2564298E-01)
 number of electron     810.0000011 magnetization       0.2545501
 augmentation part      209.1303180 magnetization       0.2186602

 Broyden mixing:
  rms(total) = 0.44231E-01    rms(broyden)= 0.44223E-01
  rms(prec ) = 0.55315E-01
  weight for this iteration     100.00

 eigenvalues of (default mixing * dielectric matrix)
  average eigenvalue GAMMA=   1.2213
  2.5435  1.5172  1.5172  0.8327  0.8327  0.5743  0.7318

 Free energy of the ion-electron system (eV)
  ---------------------------------------------------
  alpha Z        PSCENC =      2565.99546292
  Ewald energy   TEWEN  =    -43330.13687217
  -Hartree energ DENC   =    -27722.73497914
  -exchange      EXHF   =         0.00000000
  -V(xc)+E(xc)   XCENC  =      3780.37089874
  PAW double counting   =     60900.01650904   -61316.90604053
  entropy T*S    EENTRO =        -0.00000000
  eigenvalues    EBANDS =    -10868.53424300
  atomic energy  EATOM  =     75270.44210491
  Solvation  Ediel_sol  =         0.00000000
  ---------------------------------------------------
  free energy    TOTEN  =      -721.48715923 eV

  energy without entropy =     -721.48715923  energy(sigma->0) =     -721.48715923


--------------------------------------------------------------------------------------------------------




--------------------------------------- Iteration      1(  13)  ---------------------------------------


    POTLOK:  cpu time      0.1684: real time      0.3351
    SETDIJ:  cpu time      0.9096: real time      0.9118
     EDDAV:  cpu time     95.6723: real time     95.9016
       DOS:  cpu time      0.0054: real time      0.0054
    CHARGE:  cpu time      4.0407: real time      4.0504
    MIXING:  cpu time      0.0055: real time      0.0055
    --------------------------------------------
      LOOP:  cpu time    100.8018: real time    101.2098

 eigenvalue-minimisations  : 33750
 total energy-change (2. order) :-0.2337719E-02  (-0.5374388E-02)
 number of electron     810.0000011 magnetization       0.0166604
 augmentation part      209.1268442 magnetization      -0.0005577

 Broyden mixing:
  rms(total) = 0.21347E-01    rms(broyden)= 0.21344E-01
  rms(prec ) = 0.26698E-01
  weight for this iteration     100.00

 eigenvalues of (default mixing * dielectric matrix)
  average eigenvalue GAMMA=   1.2693
  2.6477  2.3639  1.1630  0.9734  0.9734  0.7963  0.5827  0.6540

 Free energy of the ion-electron system (eV)
  ---------------------------------------------------
  alpha Z        PSCENC =      2565.99546292
  Ewald energy   TEWEN  =    -43330.13687217
  -Hartree energ DENC   =    -27711.82431175
  -exchange      EXHF   =         0.00000000
  -V(xc)+E(xc)   XCENC  =      3779.95228643
  PAW double counting   =     60866.63755862   -61283.10034699
  entropy T*S    EENTRO =        -0.00000000
  eigenvalues    EBANDS =    -10879.45537891
  atomic energy  EATOM  =     75270.44210491
  Solvation  Ediel_sol  =         0.00000000
  ---------------------------------------------------
  free energy    TOTEN  =      -721.48949695 eV

  energy without entropy =     -721.48949695  energy(sigma->0) =     -721.48949695


--------------------------------------------------------------------------------------------------------




--------------------------------------- Iteration      1(  14)  ---------------------------------------


    POTLOK:  cpu time      0.2078: real time      0.3527
    SETDIJ:  cpu time      0.8849: real time      0.8871
     EDDAV:  cpu time     95.0999: real time     95.3291
       DOS:  cpu time      0.0052: real time      0.0052
    CHARGE:  cpu time      4.1369: real time      4.1469
    MIXING:  cpu time      0.0057: real time      0.0057
    --------------------------------------------
      LOOP:  cpu time    100.3403: real time    100.7266

 eigenvalue-minimisations  : 33220
 total energy-change (2. order) : 0.6750605E-02  (-0.1407141E-02)
 number of electron     810.0000011 magnetization       0.0014851
 augmentation part      209.1343738 magnetization      -0.0035108

 Broyden mixing:
  rms(total) = 0.74626E-02    rms(broyden)= 0.74608E-02
  rms(prec ) = 0.96187E-02
  weight for this iteration     100.00

[...]
      3.96188      3.76520      7.60150         0.000074     -0.001722      0.001974
      3.86292      7.86612     11.46182        -0.002287      0.001946      0.000906
      3.69771      7.72812      3.86962         0.000879      0.001861     -0.001669
      3.74415      7.72930      7.83548        -0.000952      0.000252      0.000846
      7.58446      0.06100      0.06939         0.000856      0.000180     -0.002263
      7.72789     11.50730      3.72889        -0.002037      0.000258      0.000603
      7.58835     11.48130      7.70799         0.004047      0.000821      0.000746
      7.70360      3.71527     11.56758         0.001899     -0.000078     -0.000522
      7.82771      3.87161      3.97461         0.002330     -0.000229      0.000172
      7.59334      3.85876      7.60871         0.002604     -0.001370      0.000754
      7.83615      7.70724     11.45478         0.000436      0.001730      0.001083
      7.69807      7.85894      3.86897         0.000885     -0.001737     -0.000331
      7.70688      7.83973      7.82839         0.002552      0.000192     -0.000359
     -0.00992      5.79795     11.53844        -0.001101     -0.002518     -0.004458
      0.01331      5.78875      3.89574         0.000557      0.005840      0.000298
     11.55742      5.79447      7.72500         0.000426     -0.001666      0.003187
      3.86606      1.92537      3.90691        -0.001688      0.003991      0.004642
      3.77111      1.91792      7.69634        -0.001974      0.001508     -0.001844
      3.80382      9.65582     11.56878        -0.003011     -0.000988      0.000043
      7.75549      1.95117     11.52563         0.001795      0.000940     -0.002064
      7.73237      9.63812      3.94456        -0.000091      0.001580      0.002464
      7.71772      9.65946      7.62292        -0.001432     -0.002447     -0.003909
      1.89208     11.48435      3.86374         0.000032     -0.005461     -0.003234
      1.94247      3.81514      0.03463         0.000537     -0.001892      0.001390
      1.94198      7.82660      3.94269        -0.001644      0.005077      0.002128
      1.91868      7.77973      7.66372         0.006445      0.002764     -0.001479
      5.79250      0.01195     11.42372         0.000234      0.000535     -0.009346
      5.79955      0.04632      7.78920         0.000274      0.003340      0.002736
      5.80671      3.84083      7.81078        -0.000828     -0.000590      0.005341
      9.64529      3.82465      3.84670        -0.002760     -0.001012      0.003734
      9.62867      7.75727     11.54672        -0.003892      0.002237     -0.001357
      0.00752      0.06081      9.63573         0.001842      0.000779      0.001168
     11.52874      3.74195      9.63544        -0.003890     -0.004119      0.000606
      0.01135      7.78650      1.94406        -0.000625     -0.000457      0.005238
      3.91630      0.01844      1.92731         0.007821      0.003973     -0.000033
      3.87987      3.94112      5.77212         0.002277      0.004147     -0.002165
      3.91454      7.69901      9.63788         0.002234     -0.001839     -0.003295
      7.68483     11.55813      1.94198        -0.005024      0.000254      0.000802
      7.66823      3.84771      5.77763        -0.005580     -0.001198      0.000517
      7.62799      7.72035      9.63333        -0.004175      0.000734     -0.000525
     11.47067      1.89250      0.09303        -0.007671      0.001126      0.001711
      0.04934      1.91024      3.85090         0.004756     -0.000678     -0.000080
      0.07051      1.90754      7.62209         0.006784      0.001167     -0.001177
      0.09376      9.70490     11.55086         0.005895      0.000031      0.001714
     11.41095      9.66666      3.90559        -0.006274     -0.001321      0.000732
     11.48141      9.68210      7.69662        -0.002532     -0.000319     -0.000678
      3.89308      1.95498     11.49318         0.002360      0.000600     -0.005283
      3.87857      5.79394      0.06679        -0.001210     -0.000584      0.003437
      3.82501      5.80192      3.78050        -0.005404     -0.000659     -0.002332
      3.83014      5.79382      7.71618        -0.001546     -0.000116     -0.000098
      3.99155      9.63551      3.87215         0.003333     -0.000181     -0.002576
      3.90155      9.66335      7.70553         0.008087     -0.001850      0.001544
      7.64199      1.92556      3.81452        -0.002605      0.000061     -0.001619
      7.80669      1.92285      7.81475         0.000012      0.000624      0.004405
      7.69604      5.76325      0.05697        -0.001165      0.001100      0.001260
      7.71204      5.81343      3.79331         0.001125     -0.001231     -0.001144
      7.78878      5.79993      7.70655         0.002380     -0.000494      0.001395
      7.68783      9.64668      0.00585        -0.005133     -0.000172      0.001692
      1.89706      0.12551      0.05519         0.000160      0.006704      0.006080
      1.88378     11.47459      7.63891         0.002556     -0.006546     -0.002053
      1.92185      3.84790      3.78613         0.001909      0.002647     -0.001171
      1.92714      3.89766      7.74177         0.001696      0.002103      0.002297
      1.92487      7.69440     11.54926         0.000137     -0.004146     -0.000908
      5.79914     11.57050      3.98668        -0.000569      0.001146      0.004816
      5.77856      3.87874     11.49310         0.000552     -0.000606     -0.004872
      5.79928      3.92330      3.77045        -0.001398      0.001508     -0.000095
      5.80087      7.70023      0.11985        -0.001320      0.000642      0.002835
      5.78316      7.66951      3.84473        -0.000553     -0.001891     -0.000869
      5.77703      7.67214      7.60629        -0.000308     -0.004373     -0.001678
      9.66984     11.48335      0.01761        -0.001268     -0.006248      0.001533
      9.66994      0.08483      3.86768        -0.001527      0.004612     -0.002798
      9.67734      0.05616      7.66666         0.001035      0.001827     -0.001203
      9.63706      3.88823      0.10486        -0.000195      0.004246      0.004219
      9.65421      3.79613      7.64674         0.001233     -0.001203     -0.007457
      9.61744      7.67700      3.86518         0.000834     -0.001704     -0.001094
      9.65214      7.74120      7.72972        -0.001153     -0.000453      0.004391
     11.53144     11.53408      1.91594        -0.002323     -0.000656      0.001064
     11.53391     11.58020      5.79777         0.001927      0.000216     -0.001376
     -0.00318      3.79418      1.93038        -0.001161      0.001935     -0.000431
      0.05596      3.78145      5.80092         0.005200      0.000657      0.000799
     11.47311      7.80404      5.78207        -0.001848     -0.001571     -0.001009
      0.00914      7.85811      9.64023         0.001747      0.003382     -0.000296
      3.84352     11.48757      5.79431        -0.000531     -0.001719     -0.000081
      3.65621     11.57705      9.63838        -0.005146     -0.000712     -0.001286
      3.92913      3.84679      1.91365         0.001882     -0.007677      0.000378
      3.81518      3.94762      9.64969        -0.002844      0.002860     -0.000310
      3.83817      7.71541      1.94095        -0.004431      0.002644      0.000320
      3.94842      7.68776      5.78212         0.000214     -0.000571     -0.000416
      7.76670      0.13726      5.77914         0.001402      0.003352      0.000273
      7.88547     11.52900      9.64064         0.004417     -0.005290     -0.000047
      7.65027      3.85775      1.92023        -0.000640     -0.002094      0.000137
      7.84504      3.95428      9.65253         0.006170      0.002263     -0.000578
      7.70568      7.74249      1.94340         0.000941      0.001972      0.000043
      7.72330      7.59108      5.77759         0.001968     -0.002780      0.000365
 -----------------------------------------------------------------------------------
    total drift:                                0.000529      0.000292     -0.004101


--------------------------------------------------------------------------------------------------------



  FREE ENERGIE OF THE ION-ELECTRON SYSTEM (eV)
  ---------------------------------------------------
  free  energy   TOTEN  =      -721.48318483 eV

  energy  without entropy=     -721.48318483  energy(sigma->0) =     -721.48318483
 


--------------------------------------------------------------------------------------------------------


    POTLOK:  cpu time      1.0834: real time      1.0861


--------------------------------------------------------------------------------------------------------


 Quasi-Newton relaxation of ions (Broydens 2nd method)
  g(Force)  = 0.106E-03   g(Stress)= 0.118E-03

 Reset! Starting new Quasi-Newton update for ions 


--------------------------------------------------------------------------------------------------------


  
 reached required accuracy - stopping structural energy minimisation
 writing wavefunctions
     LOOP+:  cpu time   2124.1615: real time   2132.1044
    4ORBIT:  cpu time      0.0000: real time      0.0000



 total charge

# of ion       s       p       d       tot
------------------------------------------
    1        0.318   6.473   1.716   8.507
    2        0.314   6.459   1.775   8.548
    3        0.318   6.475   1.721   8.514
    4        0.328   6.461   1.807   8.596
    5        0.320   6.455   1.782   8.557
    6        0.322   6.457   1.786   8.564
    7        0.328   6.458   1.803   8.590
    8        0.327   6.459   1.801   8.586
    9        0.321   6.457   1.781   8.559
   10        0.329   6.458   1.810   8.597
   11        0.326   6.459   1.796   8.581
   12        0.321   6.456   1.788   8.566
   13        0.317   6.463   1.772   8.552
   14        0.322   6.457   1.800   8.579
   15        0.328   6.461   1.789   8.578
   16        0.322   6.459   1.794   8.576
   17        0.317   6.462   1.772   8.551
   18        0.321   6.460   1.777   8.559
   19        0.327   6.459   1.796   8.582
   20        0.319   6.458   1.766   8.543
   21        0.320   6.455   1.781   8.556
   22        0.315   6.463   1.761   8.540
   23        0.320   6.459   1.782   8.561
   24        0.321   6.457   1.786   8.563
   25        0.321   6.458   1.790   8.570
   26        0.316   6.466   1.747   8.529
   27        0.320   6.458   1.777   8.554
   28        1.570   3.478   0.000   5.047
   29        1.569   3.474   0.000   5.043
   30        1.569   3.476   0.000   5.045
   31        1.569   3.476   0.000   5.046
   32        1.570   3.472   0.000   5.042
   33        1.570   3.476   0.000   5.046
   34        1.571   3.468   0.000   5.039
   35        1.570   3.468   0.000   5.038
   36        1.569   3.471   0.000   5.040
   37        1.571   3.464   0.000   5.035
   38        1.571   3.471   0.000   5.043
   39        1.571   3.469   0.000   5.040
   40        1.569   3.472   0.000   5.041
   41        1.570   3.475   0.000   5.046
   42        1.569   3.475   0.000   5.044
   43        1.570   3.472   0.000   5.042
   44        1.569   3.473   0.000   5.042
   45        1.569   3.473   0.000   5.042
   46        1.571   3.472   0.000   5.042
   47        1.569   3.472   0.000   5.041
   48        1.569   3.473   0.000   5.043
   49        1.569   3.474   0.000   5.043
   50        1.570   3.477   0.000   5.047
   51        1.570   3.476   0.000   5.046
   52        1.570   3.470   0.000   5.039
   53        1.570   3.477   0.000   5.046
   54        1.570   3.475   0.000   5.045
   55        1.731   4.374   0.000   6.105
   56        1.730   4.377   0.000   6.107
   57        1.731   4.376   0.000   6.107
   58        1.731   4.374   0.000   6.105
   59        1.730   4.378   0.000   6.108
   60        1.731   4.376   0.000   6.107
   61        1.730   4.379   0.000   6.109
   62        1.730   4.378   0.000   6.108
   63        1.730   4.378   0.000   6.107
   64        1.730   4.382   0.000   6.112
   65        1.730   4.378   0.000   6.108
   66        1.729   4.379   0.000   6.108
   67        1.729   4.382   0.000   6.111
   68        1.729   4.379   0.000   6.108
   69        1.729   4.379   0.000   6.109
   70        1.729   4.380   0.000   6.109
   71        1.729   4.379   0.000   6.108
   72        1.729   4.384   0.000   6.113
   73        1.731   4.374   0.000   6.105
   74        1.731   4.375   0.000   6.106
   75        1.729   4.380   0.000   6.108
   76        1.730   4.381   0.000   6.110
   77        1.729   4.381   0.000   6.110
   78        1.730   4.382   0.000   6.112
   79        1.730   4.376   0.000   6.106
   80        1.729   4.381   0.000   6.110
   81        1.729   4.379   0.000   6.108
   82        1.730   4.377   0.000   6.107
   83        1.730   4.379   0.000   6.109
   84        1.731   4.374   0.000   6.105
   85        1.729   4.377   0.000   6.107
   86        1.731   4.377   0.000   6.108
   87        1.730   4.383   0.000   6.113
   88        1.730   4.379   0.000   6.109
   89        1.730   4.382   0.000   6.112
   90        1.729   4.380   0.000   6.109
   91        1.729   4.381   0.000   6.110
   92        1.730   4.383   0.000   6.113
   93        1.729   4.381   0.000   6.110
   94        1.729   4.378   0.000   6.107
   95        1.730   4.378   0.000   6.108
   96        1.729   4.378   0.000   6.107
   97        1.730   4.379   0.000   6.108
   98        1.729   4.378   0.000   6.107
   99        1.730   4.379   0.000   6.109
  100        1.730   4.380   0.000   6.110
  101        1.730   4.380   0.000   6.110
  102        1.730   4.379   0.000   6.109
  103        1.729   4.377   0.000   6.106
  104        1.729   4.379   0.000   6.109
  105        1.730   4.380   0.000   6.110
  106        1.730   4.378   0.000   6.108
  107        1.730   4.379   0.000   6.109
  108        1.730   4.378   0.000   6.109
--------------------------------------------------
tot        144.471 504.644  48.055 697.169



 magnetization (x)

# of ion       s       p       d       tot
------------------------------------------
    1       -0.000  -0.000   0.000   0.000
    2       -0.000   0.000   0.000   0.000
    3       -0.000  -0.000   0.000   0.000
    4       -0.000  -0.000   0.000   0.000
    5       -0.000  -0.000  -0.000  -0.000
    6       -0.000  -0.000   0.000  -0.000
    7       -0.000  -0.000  -0.000  -0.000
    8       -0.000  -0.000  -0.000  -0.000
    9       -0.000  -0.000   0.000   0.000
   10       -0.000  -0.000   0.000  -0.000
   11       -0.000  -0.000  -0.000  -0.000
   12       -0.000  -0.000   0.000   0.000
   13       -0.000  -0.000   0.000   0.000
   14       -0.000  -0.000   0.000  -0.000
   15       -0.000  -0.000  -0.000  -0.000
   16       -0.000  -0.000   0.000   0.000
   17       -0.000  -0.000   0.000   0.000
   18       -0.000  -0.000   0.000  -0.000
   19       -0.000  -0.000   0.000  -0.000
   20       -0.000  -0.000   0.000  -0.000
   21       -0.000  -0.000   0.000   0.000
   22       -0.000  -0.000   0.000   0.000
   23       -0.000  -0.000  -0.000  -0.000
   24       -0.000  -0.000  -0.000  -0.000
   25       -0.000  -0.000   0.000  -0.000
   26       -0.000  -0.000   0.000   0.000
   27       -0.000  -0.000  -0.000  -0.000
   28       -0.000   0.000   0.000  -0.000
   29       -0.000   0.000   0.000   0.000
   30        0.000  -0.000   0.000  -0.000
   31       -0.000   0.000   0.000   0.000
   32        0.000  -0.000   0.000   0.000
   33        0.000   0.000   0.000   0.000
   34        0.000  -0.000   0.000  -0.000
   35        0.000  -0.000   0.000  -0.000
   36        0.000  -0.000   0.000  -0.000
   37        0.000  -0.000   0.000  -0.000
   38        0.000  -0.000   0.000  -0.000
   39        0.000  -0.000   0.000  -0.000
   40        0.000  -0.000   0.000  -0.000
   41        0.000  -0.000   0.000  -0.000
   42        0.000  -0.000   0.000  -0.000
   43        0.000   0.000   0.000   0.000
   44        0.000   0.000   0.000   0.000
   45        0.000   0.000   0.000   0.000
   46       -0.000  -0.000   0.000  -0.000
   47        0.000  -0.000   0.000  -0.000
   48        0.000   0.000   0.000   0.000
   49        0.000  -0.000   0.000  -0.000
   50        0.000   0.000   0.000   0.000
   51        0.000   0.000   0.000   0.000
   52        0.000   0.000   0.000   0.000
   53        0.000   0.000   0.000   0.000
   54       -0.000   0.000   0.000   0.000
   55       -0.000  -0.000   0.000  -0.000
   56        0.000  -0.000   0.000  -0.000
   57       -0.000  -0.000   0.000  -0.000
   58       -0.000  -0.000   0.000  -0.000
   59        0.000  -0.000   0.000  -0.000
   60       -0.000  -0.000   0.000  -0.000
   61        0.000   0.000   0.000   0.000
   62       -0.000  -0.000   0.000  -0.000
   63        0.000  -0.000   0.000  -0.000
   64        0.000   0.000   0.000   0.000
   65        0.000   0.000   0.000   0.000
   66        0.000   0.000   0.000   0.000
   67        0.000   0.000   0.000   0.000
   68        0.000   0.000   0.000   0.000
   69        0.000  -0.000   0.000  -0.000
   70        0.000   0.000   0.000   0.000
   71        0.000   0.000   0.000   0.000
   72        0.000   0.000   0.000   0.000
   73        0.000  -0.000   0.000  -0.000
   74       -0.000  -0.000   0.000  -0.000
   75        0.000   0.000   0.000   0.000
   76        0.000   0.000   0.000   0.000
   77        0.000   0.000   0.000   0.000
   78        0.000   0.000   0.000   0.000
   79       -0.000  -0.000   0.000  -0.000
   80        0.000   0.000   0.000   0.000
   81        0.000  -0.000   0.000   0.000
   82        0.000  -0.000   0.000  -0.000
   83        0.000   0.000   0.000   0.000
   84        0.000  -0.000   0.000  -0.000
   85        0.000  -0.000   0.000   0.000
   86        0.000  -0.000   0.000  -0.000
   87        0.000   0.000   0.000   0.000
   88        0.000   0.000   0.000   0.000
   89        0.000   0.000   0.000   0.000
   90        0.000   0.000   0.000   0.000
   91        0.000  -0.000   0.000  -0.000
   92       -0.000  -0.000   0.000  -0.000
   93       -0.000   0.000   0.000   0.000
   94        0.000   0.000   0.000   0.000
   95        0.000   0.000   0.000   0.000
   96        0.000   0.000   0.000   0.000
   97        0.000   0.000   0.000   0.000
   98        0.000   0.000   0.000   0.000
   99        0.000  -0.000   0.000  -0.000
  100        0.000   0.000   0.000   0.000
  101        0.000  -0.000   0.000  -0.000
  102        0.000  -0.000   0.000  -0.000
  103        0.000   0.000   0.000   0.000
  104        0.000   0.000   0.000   0.000
  105        0.000  -0.000   0.000  -0.000
  106        0.000  -0.000   0.000  -0.000
  107        0.000   0.000   0.000   0.000
  108        0.000   0.000   0.000   0.000
--------------------------------------------------
tot          0.000  -0.000   0.000   0.000
 

 total amount of memory used by VASP MPI-rank0   298944. kBytes
=======================================================================

   base      :      30000. kBytes
   nonlr-proj:      25336. kBytes
   fftplans  :      18873. kBytes
   grid      :      21088. kBytes
   one-center:        435. kBytes
   wavefun   :     203212. kBytes
 
  
  
 General timing and accounting informations for this job:
 ========================================================
  
                  Total CPU time used (sec):     2223.808
                            User time (sec):     2197.411
                          System time (sec):       26.397
                         Elapsed time (sec):     2233.470
  
                   Maximum memory used (kb):      889252.
                   Average memory used (kb):          N/A
  
                          Minor page faults:       198870
                          Major page faults:            2
                 Voluntary context switches:        17636
