 vasp.5.4.4.18Apr17-6-g9f103f2a35 (build Jul 16 2019 12:12:28) complex          
  
 executed on             LinuxIFC date 2020.02.03  20:31:43
 running on   96 total cores
 distrk:  each k-point on   96 cores,    1 groups
 distr:  one band on NCORES_PER_BAND=   8 cores,   12 groups


--------------------------------------------------------------------------------------------------------


 INCAR:
 POTCAR:    PAW_PBE Li_sv 10Sep2004               
 POTCAR:    PAW_PBE Ti_pv 07Sep2000               
 POTCAR:    PAW_PBE O 08Apr2002                   
 POTCAR:    PAW_PBE F 08Apr2002                   
 POTCAR:    PAW_PBE Li_sv 10Sep2004               
   VRHFIN =Li: 1s2s2p                                                           
   LEXCH  = PE                                                                  
   EATOM  =   202.7858 eV,   14.9043 Ry                                         
                                                                                
   TITEL  = PAW_PBE Li_sv 10Sep2004                                             
   LULTRA =        F    use ultrasoft PP ?                                      
   IUNSCR =        0    unscreen: 0-lin 1-nonlin 2-no                           
   RPACOR =    0.000    partial core radius                                     
   POMASS =    7.010; ZVAL   =    3.000    mass and valenz                      
   RCORE  =    1.700    outmost cutoff radius                                   
   RWIGS  =    2.050; RWIGS  =    1.085    wigner-seitz radius (au A)           
   ENMAX  =  499.034; ENMIN  =  374.276 eV                                      
   ICORE  =        2    local potential                                         
   LCOR   =        T    correct aug charges                                     
   LPAW   =        T    paw PP                                                  
   EAUG   =  628.945                                                            
   RMAX   =    1.732    core radius for proj-oper                               
   RAUG   =    1.300    factor for augmentation sphere                          
   RDEP   =    1.728    radius for radial grids                                 
   RDEPT  =    1.329    core radius for aug-charge                              
                                                                                
   Atomic configuration                                                         
    4 entries                                                                   
     n  l   j            E        occ.                                          
     1  0  0.50       -51.8549   2.0000                                         
     2  0  0.50        -2.8742   1.0000                                         
     2  1  0.50        -1.3606   0.0000                                         
     3  2  1.50        -1.3606   0.0000                                         
   Description                                                                  
     l       E           TYP  RCUT    TYP  RCUT                                 
     0    -51.8548813     23  1.400                                             
     0     -2.8742052     23  1.700                                             
     1     -1.3605826     23  1.400                                             
     2     -1.3605826     23  1.400                                             
  local pseudopotential read in
  atomic valenz-charges read in
  non local Contribution for L=           0  read in
    real space projection operators read in
  non local Contribution for L=           0  read in
    real space projection operators read in
  non local Contribution for L=           1  read in
    real space projection operators read in
    PAW grid and wavefunctions read in
 
   number of l-projection  operators is LMAX  =           3
   number of lm-projection operators is LMMAX =           5
 
 POTCAR:    PAW_PBE Ti_pv 07Sep2000               
   VRHFIN =Ti: d3 s1                                                            
   LEXCH  = PE                                                                  
   EATOM  =  1042.5995 eV,   76.6289 Ry                                         
                                                                                
   TITEL  = PAW_PBE Ti_pv 07Sep2000                                             
   LULTRA =        F    use ultrasoft PP ?                                      
   IUNSCR =        1    unscreen: 0-lin 1-nonlin 2-no                           
   RPACOR =    2.200    partial core radius                                     
   POMASS =   47.880; ZVAL   =   10.000    mass and valenz                      
   RCORE  =    2.500    outmost cutoff radius                                   
   RWIGS  =    2.500; RWIGS  =    1.323    wigner-seitz radius (au A)           
   ENMAX  =  222.335; ENMIN  =  166.751 eV                                      
   RCLOC  =    1.701    cutoff for local pot                                    
   LCOR   =        T    correct aug charges                                     
   LPAW   =        T    paw PP                                                  
   EAUG   =  482.848                                                            
   DEXC   =    0.000                                                            
   RMAX   =    2.564    core radius for proj-oper                               
   RAUG   =    1.300    factor for augmentation sphere                          
   RDEP   =    2.538    radius for radial grids                                 
   RDEPT  =    1.952    core radius for aug-charge                              
                                                                                
   Atomic configuration                                                         
    8 entries                                                                   
     n  l   j            E        occ.                                          
     1  0  0.50     -4865.3608   2.0000                                         
     2  0  0.50      -533.1368   2.0000                                         
     2  1  1.50      -440.5031   6.0000                                         
     3  0  0.50       -59.3186   2.0000                                         
     3  1  1.50       -35.7012   6.0000                                         
     3  2  2.50        -1.9157   3.0000                                         
     4  0  0.50        -3.7291   1.0000                                         
     4  3  2.50        -1.3606   0.0000                                         
   Description                                                                  
     l       E           TYP  RCUT    TYP  RCUT                                 
     1    -35.7012140     23  2.300                                             
     1     -1.3605826     23  2.300                                             
     2     -1.9156996     23  2.500                                             
     2     -0.4063033     23  2.500                                             
     0     -3.7290856     23  2.500                                             
     0     20.4087390     23  2.500                                             
  local pseudopotential read in
  partial core-charges read in
  partial kinetic energy density read in
  atomic valenz-charges read in
  non local Contribution for L=           1  read in
    real space projection operators read in
  non local Contribution for L=           1  read in
    real space projection operators read in
  non local Contribution for L=           2  read in
    real space projection operators read in
  non local Contribution for L=           2  read in
    real space projection operators read in
  non local Contribution for L=           0  read in
    real space projection operators read in
  non local Contribution for L=           0  read in
    real space projection operators read in
    PAW grid and wavefunctions read in
 
   number of l-projection  operators is LMAX  =           6
   number of lm-projection operators is LMMAX =          18
 
 POTCAR:    PAW_PBE O 08Apr2002                   
   VRHFIN =O: s2p4                                                              
   LEXCH  = PE                                                                  
   EATOM  =   432.3788 eV,   31.7789 Ry                                         
                                                                                
   TITEL  = PAW_PBE O 08Apr2002                                                 
   LULTRA =        F    use ultrasoft PP ?                                      
   IUNSCR =        1    unscreen: 0-lin 1-nonlin 2-no                           
   RPACOR =    1.200    partial core radius                                     
   POMASS =   16.000; ZVAL   =    6.000    mass and valenz                      
   RCORE  =    1.520    outmost cutoff radius                                   
   RWIGS  =    1.550; RWIGS  =    0.820    wigner-seitz radius (au A)           
   ENMAX  =  400.000; ENMIN  =  300.000 eV                                      
   ICORE  =        2    local potential                                         
   LCOR   =        T    correct aug charges                                     
   LPAW   =        T    paw PP                                                  
   EAUG   =  605.392                                                            
   DEXC   =    0.000                                                            
   RMAX   =    1.553    core radius for proj-oper                               
   RAUG   =    1.300    factor for augmentation sphere                          
   RDEP   =    1.550    radius for radial grids                                 
   RDEPT  =    1.329    core radius for aug-charge                              
                                                                                
   Atomic configuration                                                         
    4 entries                                                                   
     n  l   j            E        occ.                                          
     1  0  0.50      -514.6923   2.0000                                         
     2  0  0.50       -23.9615   2.0000                                         
     2  1  0.50        -9.0305   4.0000                                         
     3  2  1.50        -9.5241   0.0000                                         
   Description                                                                  
     l       E           TYP  RCUT    TYP  RCUT                                 
     0    -23.9615318     23  1.200                                             
     0     -9.5240782     23  1.200                                             
     1     -9.0304911     23  1.520                                             
     1      8.1634956     23  1.520                                             
     2     -9.5240782      7  1.500                                             
  local pseudopotential read in
  partial core-charges read in
  partial kinetic energy density read in
  kinetic energy density of atom read in
  atomic valenz-charges read in
  non local Contribution for L=           0  read in
    real space projection operators read in
  non local Contribution for L=           0  read in
    real space projection operators read in
  non local Contribution for L=           1  read in
    real space projection operators read in
  non local Contribution for L=           1  read in
    real space projection operators read in
    PAW grid and wavefunctions read in
 
   number of l-projection  operators is LMAX  =           4
   number of lm-projection operators is LMMAX =           8
 
 POTCAR:    PAW_PBE F 08Apr2002                   
   VRHFIN =F: s2p5                                                              
   LEXCH  = PE                                                                  
   EATOM  =   659.6475 eV,   48.4827 Ry                                         
                                                                                
   TITEL  = PAW_PBE F 08Apr2002                                                 
   LULTRA =        F    use ultrasoft PP ?                                      
   IUNSCR =        1    unscreen: 0-lin 1-nonlin 2-no                           
   RPACOR =    1.200    partial core radius                                     
   POMASS =   18.998; ZVAL   =    7.000    mass and valenz                      
   RCORE  =    1.520    outmost cutoff radius                                   
   RWIGS  =    1.500; RWIGS  =    0.794    wigner-seitz radius (au A)           
   ENMAX  =  400.000; ENMIN  =  300.000 eV                                      
   ICORE  =        2    local potential                                         
   LCOR   =        T    correct aug charges                                     
   LPAW   =        T    paw PP                                                  
   EAUG   =  613.614                                                            
   RMAX   =    1.555    core radius for proj-oper                               
   RAUG   =    1.300    factor for augmentation sphere                          
   RDEP   =    1.539    radius for radial grids                                 
   RDEPT  =    1.299    core radius for aug-charge                              
                                                                                
   Atomic configuration                                                         
    4 entries                                                                   
     n  l   j            E        occ.                                          
     1  0  0.50      -663.3661   2.0000                                         
     2  0  0.50       -29.8995   2.0000                                         
     2  1  0.50       -11.1114   5.0000                                         
     3  2  1.50       -10.8847   0.0000                                         
   Description                                                                  
     l       E           TYP  RCUT    TYP  RCUT                                 
     0    -29.8995018     23  1.200                                             
     0     -9.5240782     23  1.200                                             
     1    -11.1113914     23  1.520                                             
     1      1.3605826     23  1.520                                             
     2    -10.8846608      7  1.500                                             
  local pseudopotential read in
  partial core-charges read in
  partial kinetic energy density read in
  atomic valenz-charges read in
  non local Contribution for L=           0  read in
    real space projection operators read in
  non local Contribution for L=           0  read in
    real space projection operators read in
  non local Contribution for L=           1  read in
    real space projection operators read in
  non local Contribution for L=           1  read in
    real space projection operators read in
    PAW grid and wavefunctions read in
 
   number of l-projection  operators is LMAX  =           4
   number of lm-projection operators is LMMAX =           8
 
 Optimization of the real space projectors (new method)

 maximal supplied QI-value         = 22.11
 optimisation between [QCUT,QGAM] = [ 11.28, 22.77] = [ 35.61,145.23] Ry 
 Optimized for a Real-space Cutoff    1.31 Angstroem

   l    n(q)    QCUT    max X(q) W(low)/X(q) W(high)/X(q)  e(spline) 
   0      9    11.276    10.506    0.19E-04    0.17E-04    0.32E-07
   0      9    11.276     8.367    0.38E-04    0.40E-04    0.65E-07
   1      8    11.276     8.983    0.55E-04    0.98E-04    0.20E-06
 Optimization of the real space projectors (new method)

 maximal supplied QI-value         = 15.12
 optimisation between [QCUT,QGAM] = [ 11.34, 22.83] = [ 36.00,145.93] Ry 
 Optimized for a Real-space Cutoff    1.56 Angstroem

   l    n(q)    QCUT    max X(q) W(low)/X(q) W(high)/X(q)  e(spline) 
   1     10    11.338     4.216    0.27E-04    0.12E-04    0.66E-07
   1     10    11.338     5.422    0.81E-04    0.24E-04    0.19E-06
   2     10    11.338    72.084    0.64E-04    0.21E-03    0.51E-06
   2     10    11.338    65.965    0.63E-04    0.21E-03    0.50E-06
   0     11    11.338    41.531    0.33E-04    0.54E-04    0.13E-06
   0     11    11.338    16.290    0.26E-04    0.41E-04    0.11E-06
 Optimization of the real space projectors (new method)

 maximal supplied QI-value         = 24.76
 optimisation between [QCUT,QGAM] = [ 11.39, 22.77] = [ 36.31,145.25] Ry 
 Optimized for a Real-space Cutoff    1.20 Angstroem

   l    n(q)    QCUT    max X(q) W(low)/X(q) W(high)/X(q)  e(spline) 
   0      8    11.387    20.381    0.89E-04    0.31E-03    0.27E-06
   0      8    11.387    15.268    0.93E-04    0.32E-03    0.29E-06
   1      8    11.387     5.964    0.53E-04    0.28E-03    0.29E-06
   1      8    11.387     5.382    0.37E-04    0.22E-03    0.26E-06
 Optimization of the real space projectors (new method)

 maximal supplied QI-value         = 24.76
 optimisation between [QCUT,QGAM] = [ 11.39, 22.77] = [ 36.31,145.25] Ry 
 Optimized for a Real-space Cutoff    1.20 Angstroem

   l    n(q)    QCUT    max X(q) W(low)/X(q) W(high)/X(q)  e(spline) 
   0      8    11.387    14.049    0.69E-04    0.23E-03    0.18E-06
   0      8    11.387     8.945    0.88E-04    0.30E-03    0.26E-06
   1      8    11.387     7.086    0.62E-04    0.27E-03    0.27E-06
   1      8    11.387     6.747    0.46E-04    0.23E-03    0.25E-06

 ----------------------------------------------------------------------------- 
|                                                                             |
|  ADVICE TO THIS USER RUNNING 'VASP/VAMP'   (HEAR YOUR MASTER'S VOICE ...):  |
|                                                                             |
|      You enforced a specific xc-type in the INCAR file,                     |
|      a different type was found on the POTCAR file                          |
|          I HOPE YOU KNOW, WHAT YOU ARE  DOING                               |
|                                                                             |
 ----------------------------------------------------------------------------- 

  PAW_PBE Li_sv 10Sep2004               :
 energy of atom  1       EATOM= -202.7858
 kinetic energy error for atom=    0.0143 (will be added to EATOM!!)
  PAW_PBE Ti_pv 07Sep2000               :
 energy of atom  2       EATOM=-1042.5995
 kinetic energy error for atom=    0.0024 (will be added to EATOM!!)
  PAW_PBE O 08Apr2002                   :
 energy of atom  3       EATOM= -432.3788
 kinetic energy error for atom=    0.0224 (will be added to EATOM!!)
  PAW_PBE F 08Apr2002                   :
 energy of atom  4       EATOM= -659.6475
 kinetic energy error for atom=    0.0354 (will be added to EATOM!!)
 
 
 POSCAR: config 57                               
  positions in direct lattice
  velocities in cartesian coordinates
 exchange correlation table for  LEXCH =       14
   RHO(1)=    0.500       N(1)  =     2000
   RHO(2)=  100.500       N(2)  =     4000

 VTST: version 3.2, (02/03/18)

 CHAIN: initializing optimizer
 
 OPT: Using VASP QUASI-newton optimizer
 CHAIN: Read ICHAIN            0
 
 POSCAR: config 57                               
  positions in direct lattice
  velocities in cartesian coordinates
 


--------------------------------------------------------------------------------------------------------


 ion  position               nearest neighbor table
   1  0.875  0.553  0.121- 194 1.93  78 1.96 107 1.98 132 2.00  48 2.85  40 2.87  12 2.88
   2  0.995  0.995  0.995- 118 1.87  68 1.88 103 1.89 171 2.02 212 2.04 130 2.04
   3  0.999  0.992  0.494- 119 1.81  67 1.82 172 1.94 193 1.95 131 2.01 213 2.07
   4  0.010  0.495  0.995-  89 1.80 117 1.85 138 1.91 132 2.01 214 2.03 194 2.06
   5  0.994  0.503  0.507-  66 1.82 104 1.83 215 1.93 223 2.00 173 2.01 137 2.02
   6  0.494  0.994  1.000- 101 1.83 121 1.84 140 1.95 133 1.96 216 2.02 174 2.03
   7  0.501  0.008  0.500- 112 1.77 191 1.91 134 1.91 139 1.92 175 1.93 225 2.02
   8  0.503  0.496  0.996-  90 1.87  70 1.88 120 1.88 192 2.01 135 2.03 217 2.05
   9  0.491  0.499  0.495- 102 1.81  69 1.85 224 1.97 218 1.98 136 2.01 176 2.06
  10  0.007  0.002  0.256-  91 1.83  67 1.86 219 1.93 227 1.97 130 2.00 197 2.06
  11  0.001  0.007  0.757-  68 1.79 113 1.84 177 1.94 198 1.98 228 2.04 131 2.06
  12  0.994  0.495  0.253- 107 1.77 122 1.88 137 1.92 220 2.02 178 2.02 132 2.03   1 2.88
  13  0.993  0.500  0.741-  66 1.82 108 1.82 226 1.93 221 1.96 138 2.02 179 2.04
  14  0.507  0.008  0.250- 114 1.81  92 1.84 133 1.92 139 1.97 195 2.00 231 2.04
  15  0.493  0.005  0.752- 105 1.81 115 1.84 140 1.93 134 1.99 232 2.01 180 2.03
  16  0.491  0.498  0.257-  69 1.83 106 1.84 229 1.96 181 1.98 222 2.01 135 2.02
  17  0.501  0.504  0.758-  70 1.80 116 1.87 182 1.95 196 1.97 230 2.03 136 2.06
  18  0.995  0.257  0.002- 117 1.83 110 1.87 141 1.95 146 1.96 183 2.00 212 2.01
  19  0.999  0.248  0.491-  74 1.77 213 1.91 184 1.93 202 1.93 223 1.94 142 2.02
  20  0.999  0.758  0.007- 118 1.80  71 1.86 203 1.95 185 1.97 148 2.04 214 2.06
  21  0.997  0.756  0.506- 119 1.83  72 1.83 204 1.94 186 1.96 215 2.02 147 2.03
  22  0.495  0.258  0.001- 120 1.80 109 1.84 150 1.96 143 1.97 187 2.04 216 2.06
  23  0.508  0.246  0.499-  93 1.80 112 1.90 144 1.92 149 1.93 224 1.97 199 2.00
  24  0.507  0.757  0.999-  94 1.83 121 1.84 152 1.94 145 1.98 217 2.01 200 2.02
  25  0.506  0.753  0.509-  73 1.79  95 1.83 218 1.96 225 1.96 201 2.01 151 2.07
  26  0.999  0.259  0.255- 122 1.78  74 1.89 209 1.94 188 1.95 141 1.99 219 2.03
  27  0.007  0.242  0.748- 113 1.80  96 1.83 142 1.96 146 1.97 226 2.05 210 2.05
  28  0.007  0.749  0.243-  71 1.83  97 1.83 220 1.94 227 1.97 147 2.04 211 2.07
  29  0.993  0.751  0.744- 111 1.82  72 1.84 228 1.93 221 1.98 189 2.02 148 2.03
  30  0.509  0.243  0.252-  98 1.81 114 1.83 143 1.93 149 1.96 229 2.00 205 2.02
  31  0.507  0.243  0.750-  99 1.84 115 1.84 150 1.93 144 1.97 206 2.02 230 2.02
  32  0.507  0.753  0.251- 100 1.79 151 1.92 231 1.93 222 1.94 145 1.94 207 2.01
  33  0.501  0.742  0.743- 116 1.80  73 1.84 190 1.94 208 1.97 152 2.02 232 2.06
  34  0.256  0.999  0.006-  75 1.84 101 1.86 246 1.93 233 1.96 171 2.01 157 2.04
  35  0.250  0.994  0.507- 128 1.83  76 1.84 172 1.94 191 1.98 234 2.02 156 2.02
  36  0.246  0.508  0.997- 123 1.81  89 1.85 159 1.93 153 1.97 192 1.98 245 2.04
  37  0.254  0.494  0.506-  77 1.86 102 1.87 127 1.88 173 2.04 158 2.04 235 2.04
  38  0.757  0.001  0.994- 103 1.79  81 1.87 236 1.95 249 1.96 154 2.04 174 2.05
  39  0.750  0.006  0.494-  80 1.83 124 1.83 193 1.93 175 1.99 155 2.00 250 2.02
  40  0.739  0.502  0.005-  90 1.78  78 1.83 247 1.95 237 1.97 161 2.02 194 2.14   1 2.87
  41  0.755  0.498  0.507-  79 1.83 104 1.85 248 1.95 238 1.98 176 2.01 160 2.01
  42  0.245  0.002  0.244-  75 1.83  91 1.85 239 1.93 252 1.96 156 2.04 195 2.05
  43  0.258  0.998  0.744- 105 1.84  76 1.84 253 1.93 240 1.97 177 2.02 157 2.02
  44  0.255  0.493  0.252- 106 1.82 129 1.83 158 1.93 153 1.97 178 2.01 241 2.04
  45  0.247  0.506  0.741-  77 1.79 125 1.83 179 1.95 196 1.97 251 2.02 159 2.06
  46  0.745  1.000  0.256-  92 1.85  80 1.86 256 1.94 242 1.94 197 2.00 154 2.00
  47  0.748  0.006  0.757-  81 1.82 126 1.83 180 1.94 198 1.97 257 2.03 155 2.06
  48  0.750  0.500  0.247-  78 1.94 254 2.00 160 2.01 243 2.01 107 2.02 181 2.03   1 2.85
  49  0.757  0.499  0.744- 108 1.82  79 1.83 255 1.93 244 1.98 161 2.02 182 2.03
  50  0.257  0.252  0.006- 109 1.83  82 1.85 245 1.93 233 1.97 168 2.02 183 2.05
  51  0.253  0.257  0.506- 127 1.81  83 1.85 199 1.96 184 2.01 167 2.03 234 2.05
  52  0.252  0.743  0.993- 123 1.82  86 1.83 200 1.94 185 1.96 246 2.03 162 2.03
  53  0.251  0.755  0.492-  85 1.83 128 1.86 201 1.95 186 1.97 235 2.00 163 2.04
  54  0.757  0.251  0.008- 110 1.81  84 1.84 236 1.94 247 1.95 170 2.03 187 2.03
  55  0.743  0.242  0.498- 124 1.82  93 1.84 169 1.93 164 1.95 248 2.02 202 2.03
  56  0.741  0.751  0.994-  94 1.82  88 1.83 237 1.94 249 1.94 203 2.02 165 2.05
  57  0.741  0.753  0.494-  95 1.81  87 1.85 250 1.94 238 1.96 166 2.02 204 2.03
  58  0.252  0.258  0.244- 129 1.81  82 1.83 205 1.95 188 1.98 167 2.03 239 2.03
  59  0.244  0.252  0.744-  83 1.83  96 1.84 251 1.93 240 1.97 168 2.03 206 2.04
  60  0.244  0.749  0.255-  97 1.83  85 1.84 241 1.93 252 1.97 162 2.03 207 2.05
  61  0.248  0.742  0.756- 125 1.81  86 1.84 189 1.93 208 1.97 163 2.03 253 2.04
  62  0.743  0.251  0.243-  84 1.80  98 1.83 254 1.89 242 1.95 209 2.03 169 2.06
  63  0.744  0.242  0.751- 126 1.82  99 1.84 170 1.93 164 1.99 210 2.02 255 2.04
  64  0.745  0.752  0.257-  87 1.82 243 1.89 100 1.90 256 1.95 211 1.99 165 2.04
  65  0.757  0.752  0.757- 111 1.82  88 1.84 257 1.93 244 1.97 190 2.03 166 2.04
  66  0.008  0.506  0.625-  13 1.82   5 1.82
  67  0.996  0.002  0.376-   3 1.82  10 1.86
  68  0.000  0.999  0.873-  11 1.79   2 1.88
  69  0.500  0.494  0.375-  16 1.83   9 1.85
  70  0.494  0.497  0.874-  17 1.80   8 1.88
  71  0.995  0.741  0.126-  28 1.83  20 1.86
  72  0.998  0.743  0.624-  21 1.83  29 1.84
  73  0.497  0.753  0.625-  25 1.79  33 1.84
  74  0.995  0.251  0.377-  19 1.77  26 1.89
  75  0.255  0.003  0.125-  42 1.83  34 1.84
  76  0.254  0.003  0.625-  43 1.84  35 1.84
  77  0.240  0.496  0.625-  45 1.79  37 1.86
  78  0.756  0.508  0.122-  40 1.83  48 1.94   1 1.96
  79  0.746  0.497  0.625-  41 1.83  49 1.83
  80  0.750  0.996  0.376-  39 1.83  46 1.86
  81  0.746  0.996  0.874-  47 1.82  38 1.87
  82  0.246  0.250  0.125-  58 1.83  50 1.85
  83  0.252  0.249  0.625-  59 1.83  51 1.85
  84  0.743  0.254  0.126-  62 1.80  54 1.84
  85  0.251  0.747  0.374-  53 1.83  60 1.84
  86  0.248  0.752  0.875-  52 1.83  61 1.84
  87  0.750  0.759  0.375-  64 1.82  57 1.85
  88  0.745  0.758  0.875-  56 1.83  65 1.84
  89  0.127  0.505  0.994-   4 1.80  36 1.85
  90  0.624  0.509  0.999-  40 1.78   8 1.87
  91  0.125  0.999  0.252-  10 1.83  42 1.85
  92  0.625  0.996  0.250-  14 1.84  46 1.85
  93  0.624  0.257  0.495-  23 1.80  55 1.84
  94  0.625  0.742  0.006-  56 1.82  24 1.83
  95  0.624  0.762  0.500-  57 1.81  25 1.83
  96  0.125  0.251  0.750-  27 1.83  59 1.84
  97  0.126  0.758  0.248-  28 1.83  60 1.83
  98  0.625  0.252  0.262-  30 1.81  62 1.83
  99  0.626  0.253  0.748-  31 1.84  63 1.84
 100  0.622  0.761  0.248-  32 1.79  64 1.90
 101  0.376  0.999  0.993-   6 1.83  34 1.86
 102  0.375  0.505  0.503-   9 1.81  37 1.87
 103  0.873  0.001  0.000-  38 1.79   2 1.89
 104  0.875  0.503  0.501-   5 1.83  41 1.85
 105  0.376  0.997  0.756-  15 1.81  43 1.84
 106  0.373  0.502  0.250-  44 1.82  16 1.84
 107  0.881  0.510  0.242-  12 1.77   1 1.98  48 2.02
 108  0.875  0.507  0.747-  13 1.82  49 1.82
 109  0.376  0.249  0.004-  50 1.83  22 1.84
 110  0.875  0.250  0.005-  54 1.81  18 1.87
 111  0.875  0.745  0.753-  65 1.82  29 1.82
 112  0.510  0.123  0.496-   7 1.77  23 1.90
 113  0.997  0.126  0.748-  27 1.80  11 1.84
 114  0.501  0.125  0.262-  14 1.81  30 1.83
 115  0.501  0.124  0.748-  15 1.84  31 1.84
 116  0.501  0.625  0.750-  33 1.80  17 1.87
 117  0.001  0.376  0.007-  18 1.83   4 1.85
 118  0.003  0.875  0.005-  20 1.80   2 1.87
 119  0.996  0.875  0.502-   3 1.81  21 1.83
 120  0.503  0.374  0.007-  22 1.80   8 1.88
 121  0.505  0.876  0.004-  24 1.84   6 1.84
 122  0.001  0.374  0.244-  26 1.78  12 1.88
 123  0.257  0.625  0.002-  36 1.81  52 1.82
 124  0.742  0.125  0.502-  55 1.82  39 1.83
 125  0.248  0.625  0.750-  61 1.81  45 1.83
 126  0.751  0.125  0.748-  63 1.82  47 1.83
 127  0.252  0.373  0.494-  51 1.81  37 1.88
 128  0.252  0.876  0.499-  35 1.83  53 1.86
 129  0.246  0.374  0.256-  58 1.81  44 1.83
 130  1.000  0.005  0.127-  10 2.00   2 2.04
 131  0.003  0.001  0.624-   3 2.01  11 2.06
 132  0.999  0.517  0.123-   1 2.00   4 2.01  12 2.03
 133  0.495  0.008  0.126-  14 1.92   6 1.96
 134  0.497  0.995  0.623-   7 1.91  15 1.99
 135  0.497  0.508  0.127-  16 2.02   8 2.03
 136  0.507  0.500  0.625-   9 2.01  17 2.06
 137  0.002  0.492  0.377-  12 1.92   5 2.02
 138  0.995  0.495  0.872-   4 1.91  13 2.02
 139  0.503  0.989  0.377-   7 1.92  14 1.97
 140  0.514  1.000  0.875-  15 1.93   6 1.95
 141  0.008  0.243  0.127-  18 1.95  26 1.99
 142  0.999  0.254  0.622-  27 1.96  19 2.02
 143  0.509  0.239  0.127-  30 1.93  22 1.97
 144  0.496  0.248  0.623-  23 1.92  31 1.97
 145  0.493  0.746  0.127-  32 1.94  24 1.98
 146  0.996  0.255  0.874-  18 1.96  27 1.97
 147  0.997  0.754  0.375-  21 2.03  28 2.04
 148  0.004  0.753  0.874-  29 2.03  20 2.04
 149  0.491  0.262  0.376-  23 1.93  30 1.96
 150  0.500  0.252  0.875-  31 1.93  22 1.96
 151  0.496  0.755  0.376-  32 1.92  25 2.07
 152  0.502  0.753  0.874-  24 1.94  33 2.02
 153  0.247  0.495  0.124-  36 1.97  44 1.97
 154  0.750  0.007  0.127-  46 2.00  38 2.04
 155  0.747  0.998  0.624-  39 2.00  47 2.06
 156  0.252  0.001  0.376-  35 2.02  42 2.04
 157  0.244  0.996  0.875-  43 2.02  34 2.04
 158  0.244  0.511  0.375-  44 1.93  37 2.04
 159  0.259  0.498  0.873-  36 1.93  45 2.06
 160  0.747  0.502  0.377-  48 2.01  41 2.01
 161  0.754  0.502  0.875-  49 2.02  40 2.02
 162  0.255  0.754  0.125-  60 2.03  52 2.03
 163  0.251  0.751  0.625-  61 2.03  53 2.04
 164  0.751  0.258  0.624-  55 1.95  63 1.99
 165  0.756  0.743  0.125-  64 2.04  56 2.05
 166  0.750  0.747  0.625-  57 2.02  65 2.04
 167  0.253  0.243  0.375-  51 2.03  58 2.03
 168  0.252  0.251  0.875-  50 2.02  59 2.03
 169  0.762  0.246  0.375-  55 1.93  62 2.06
 170  0.753  0.250  0.876-  63 1.93  54 2.03
 171  0.126  0.004  0.002-  34 2.01   2 2.02
 172  0.125  0.003  0.499-  35 1.94   3 1.94
 173  0.123  0.499  0.493-   5 2.01  37 2.04
 174  0.625  0.003  0.007-   6 2.03  38 2.05
 175  0.624  0.984  0.503-   7 1.93  39 1.99
 176  0.625  0.493  0.499-  41 2.01   9 2.06
 177  0.127  1.000  0.747-  11 1.94  43 2.02
 178  0.125  0.503  0.246-  44 2.01  12 2.02
 179  0.123  0.494  0.762-  45 1.95  13 2.04
 180  0.624  0.995  0.742-  47 1.94  15 2.03
 181  0.619  0.492  0.246-  16 1.98  48 2.03
 182  0.627  0.494  0.756-  17 1.95  49 2.03
 183  0.125  0.249  0.994-  18 2.00  50 2.05
 184  0.124  0.247  0.498-  19 1.93  51 2.01
 185  0.125  0.744  0.004-  52 1.96  20 1.97
 186  0.124  0.750  0.499-  21 1.96  53 1.97
 187  0.627  0.249  0.994-  54 2.03  22 2.04
 188  0.125  0.242  0.257-  26 1.95  58 1.98
 189  0.123  0.754  0.748-  61 1.93  29 2.02
 190  0.626  0.754  0.746-  33 1.94  65 2.03
 191  0.377  0.008  0.496-   7 1.91  35 1.98
 192  0.373  0.494  0.005-  36 1.98   8 2.01
 193  0.875  0.008  0.508-  39 1.93   3 1.95
 194  0.878  0.504  0.006-   1 1.93   4 2.06  40 2.14
 195  0.377  0.000  0.256-  14 2.00  42 2.05
 196  0.375  0.498  0.742-  17 1.97  45 1.97
 197  0.874  0.003  0.248-  46 2.00  10 2.06
 198  0.874  0.994  0.743-  47 1.97  11 1.98
 199  0.379  0.242  0.499-  51 1.96  23 2.00
 200  0.377  0.758  0.998-  52 1.94  24 2.02
 201  0.377  0.743  0.499-  53 1.95  25 2.01
 202  0.874  0.248  0.505-  19 1.93  55 2.03
 203  0.873  0.755  0.997-  20 1.95  56 2.02
 204  0.872  0.742  0.500-  21 1.94  57 2.03
 205  0.378  0.251  0.247-  58 1.95  30 2.02
 206  0.376  0.250  0.752-  31 2.02  59 2.04
 207  0.377  0.746  0.250-  32 2.01  60 2.05
 208  0.375  0.755  0.752-  33 1.97  61 1.97
 209  0.875  0.246  0.244-  26 1.94  62 2.03
 210  0.874  0.254  0.747-  63 2.02  27 2.05
 211  0.874  0.742  0.251-  64 1.99  28 2.07
 212  0.003  0.127  0.998-  18 2.01   2 2.04
 213  0.999  0.125  0.505-  19 1.91   3 2.07
 214  0.994  0.625  0.992-   4 2.03  20 2.06
 215  0.002  0.626  0.489-   5 1.93  21 2.02
 216  0.504  0.125  0.997-   6 2.02  22 2.06
 217  0.489  0.628  0.998-  24 2.01   8 2.05
 218  0.508  0.627  0.497-  25 1.96   9 1.98
 219  0.997  0.127  0.250-  10 1.93  26 2.03
 220  0.009  0.625  0.262-  28 1.94  12 2.02
 221  0.010  0.625  0.759-  13 1.96  29 1.98
 222  0.505  0.627  0.256-  32 1.94  16 2.01
 223  0.000  0.374  0.503-  19 1.94   5 2.00
 224  0.493  0.372  0.507-  23 1.97   9 1.97
 225  0.488  0.878  0.499-  25 1.96   7 2.02
 226  0.996  0.375  0.747-  13 1.93  27 2.05
 227  0.991  0.876  0.247-  10 1.97  28 1.97
 228  0.000  0.876  0.745-  29 1.93  11 2.04
 229  0.495  0.372  0.241-  16 1.96  30 2.00
 230  0.497  0.373  0.744-  31 2.02  17 2.03
 231  0.491  0.877  0.246-  32 1.93  14 2.04
 232  0.503  0.875  0.752-  15 2.01  33 2.06
 233  0.247  0.125  0.994-  34 1.96  50 1.97
 234  0.249  0.124  0.497-  35 2.02  51 2.05
 235  0.245  0.626  0.504-  53 2.00  37 2.04
 236  0.745  0.127  0.999-  54 1.94  38 1.95
 237  0.763  0.627  0.993-  56 1.94  40 1.97
 238  0.742  0.626  0.499-  57 1.96  41 1.98
 239  0.255  0.126  0.254-  42 1.93  58 2.03
 240  0.251  0.124  0.757-  43 1.97  59 1.97
 241  0.247  0.624  0.241-  60 1.93  44 2.04
 242  0.752  0.125  0.253-  46 1.94  62 1.95
 243  0.738  0.630  0.255-  64 1.89  48 2.01
 244  0.740  0.625  0.751-  65 1.97  49 1.98
 245  0.248  0.376  0.997-  50 1.93  36 2.04
 246  0.244  0.874  0.003-  34 1.93  52 2.03
 247  0.749  0.377  0.995-  54 1.95  40 1.95
 248  0.755  0.372  0.494-  41 1.95  55 2.02
 249  0.745  0.876  0.012-  56 1.94  38 1.96
 250  0.762  0.877  0.507-  57 1.94  39 2.02
 251  0.253  0.376  0.756-  59 1.93  45 2.02
 252  0.259  0.876  0.251-  42 1.96  60 1.97
 253  0.247  0.873  0.747-  43 1.93  61 2.04
 254  0.759  0.371  0.260-  62 1.89  48 2.00
 255  0.754  0.374  0.755-  49 1.93  63 2.04
 256  0.760  0.876  0.238-  46 1.94  64 1.95
 257  0.751  0.876  0.741-  65 1.93  47 2.03
 

IMPORTANT INFORMATION: All symmetrisations will be switched off!
NOSYMM: (Re-)initialisation of all symmetry stuff for point group C_1.

 
 
 KPOINTS: Title                                   

Automatic generation of k-mesh.
Space group operators:
 irot       det(A)        alpha          n_x          n_y          n_z        tau_x        tau_y        tau_z
    1     1.000000     0.000001     1.000000     0.000000     0.000000     0.000000     0.000000     0.000000
 
 Subroutine IBZKPT returns following result:
 ===========================================
 
 Found      4 irreducible k-points:
 
 Following reciprocal coordinates:
            Coordinates               Weight
  0.250000  0.250000  0.250000      2.000000
 -0.250000  0.250000  0.250000      2.000000
  0.250000 -0.250000  0.250000      2.000000
 -0.250000 -0.250000  0.250000      2.000000
 
 Following cartesian coordinates:
            Coordinates               Weight
  0.016206  0.016206  0.016206      2.000000
 -0.016206  0.016206  0.016206      2.000000
  0.016206 -0.016206  0.016206      2.000000
 -0.016206 -0.016206  0.016206      2.000000
 


--------------------------------------------------------------------------------------------------------




 Dimension of arrays:
   k-points           NKPTS =      4   k-points in BZ     NKDIM =      4   number of bands    NBANDS=   1164
   number of dos      NEDOS =   3001   number of ions     NIONS =    257
   non local maximal  LDIM  =      6   non local SUM 2l+1 LMDIM =     18
   total plane-waves  NPLWV = ******
   max r-space proj   IRMAX =   7595   max aug-charges    IRDMAX= 146383
   dimension x,y,z NGX =   120 NGY =  120 NGZ =  120
   dimension x,y,z NGXF=   240 NGYF=  240 NGZF=  240
   support grid    NGXF=   480 NGYF=  480 NGZF=  480
   ions per type =               1  64  64 128
   NGX,Y,Z   is equivalent  to a cutoff of  12.93, 12.93, 12.93 a.u.
   NGXF,Y,Z  is equivalent  to a cutoff of  25.86, 25.86, 25.86 a.u.

 SYSTEM =  LTO                                     
 POSCAR =  config 57                               

 Startparameter for this run:
   NWRITE =      2    write-flag & timer
   PREC   = accura    normal or accurate (medium, high low for compatibility)
   ISTART =      1    job   : 0-new  1-cont  2-samecut
   ICHARG =      0    charge: 1-file 2-atom 10-const
   ISPIN  =      2    spin polarized calculation?
   LNONCOLLINEAR =      F non collinear calculations
   LSORBIT =      F    spin-orbit coupling
   INIWAV =      1    electr: 0-lowe 1-rand  2-diag
   LASPH  =      T    aspherical Exc in radial PAW
   METAGGA=      F    non-selfconsistent MetaGGA calc.

 Electronic Relaxation 1
   ENCUT  =  500.0 eV  36.75 Ry    6.06 a.u.  28.13 28.13 28.13*2*pi/ulx,y,z
   ENINI  =  500.0     initial cutoff
   ENAUG  =  628.9 eV  augmentation charge cutoff
   NELM   =     60;   NELMIN=  2; NELMDL=  0     # of ELM steps 
   EDIFF  = 0.1E-05   stopping-criterion for ELM
   LREAL  =      T    real-space projection
   NLSPLINE    = F    spline interpolate recip. space projectors
   LCOMPAT=      F    compatible to vasp.4.4
   GGA_COMPAT  = T    GGA compatible to vasp.4.4-vasp.4.6
   LMAXPAW     = -100 max onsite density
   LMAXMIX     =    4 max onsite mixed and CHGCAR
   VOSKOWN=      0    Vosko Wilk Nusair interpolation
   ROPT   =   -0.00010  -0.00010  -0.00010  -0.00010
 Ionic relaxation
   EDIFFG = -.5E-01   stopping-criterion for IOM
   NSW    =    100    number of steps for IOM
   NBLOCK =      1;   KBLOCK =    100    inner block; outer block 
   IBRION =      1    ionic relax: 0-MD 1-quasi-New 2-CG
   NFREE  =      0    steps in history (QN), initial steepest desc. (CG)
   ISIF   =      2    stress and relaxation
   IWAVPR =     11    prediction:  0-non 1-charg 2-wave 3-comb
   ISYM   =      0    0-nonsym 1-usesym 2-fastsym
   LCORR  =      T    Harris-Foulkes like correction to forces

   POTIM  = 0.5000    time-step for ionic-motion
   TEIN   =    0.0    initial temperature
   TEBEG  =    0.0;   TEEND  =   0.0 temperature during run
   SMASS  =  -3.00    Nose mass-parameter (am)
   estimated Nose-frequenzy (Omega)   =  0.10E-29 period in steps =****** mass=  -0.544E-26a.u.
   SCALEE = 1.0000    scale energy and forces
   NPACO  =    256;   APACO  = 16.0  distance and # of slots for P.C.
   PSTRESS=    0.0 pullay stress

  Mass of Ions in am
   POMASS =   7.01 47.88 16.00 19.00
  Ionic Valenz
   ZVAL   =   3.00 10.00  6.00  7.00
  Atomic Wigner-Seitz radii
   RWIGS  =  -1.00 -1.00 -1.00 -1.00
  virtual crystal weights 
   VCA    =   1.00  1.00  1.00  1.00
   NELECT =    1923.0000    total number of electrons
   NUPDOWN=       1.0000    fix difference up-down

 DOS related values:
   EMIN   =  10.00;   EMAX   =-10.00  energy-range for DOS
   EFERMI =   0.00
   ISMEAR =     0;   SIGMA  =   0.01  broadening in eV -4-tet -1-fermi 0-gaus

 Electronic relaxation 2 (details)
   IALGO  =     38    algorithm
   LDIAG  =      T    sub-space diagonalisation (order eigenvalues)
   LSUBROT=      F    optimize rotation matrix (better conditioning)
   TURBO    =      0    0=normal 1=particle mesh
   IRESTART =      0    0=no restart 2=restart with 2 vectors
   NREBOOT  =      0    no. of reboots
   NMIN     =      0    reboot dimension
   EREF     =   0.00    reference energy to select bands
   IMIX   =      4    mixing-type and parameters
     AMIX     =   0.40;   BMIX     =  1.00
     AMIX_MAG =   1.60;   BMIX_MAG =  1.00
     AMIN     =   0.10
     WC   =   100.;   INIMIX=   1;  MIXPRE=   1;  MAXMIX= -45

 Intra band minimization:
   WEIMIN = 0.0010     energy-eigenvalue tresh-hold
   EBREAK =  0.21E-09  absolut break condition
   DEPER  =   0.30     relativ break condition  

   TIME   =   0.40     timestep for ELM

  volume/ion in A,a.u.               =      14.28        96.39
  Fermi-wavevector in a.u.,A,eV,Ry     =   1.319690  2.493853 23.695660  1.741582
  Thomas-Fermi vector in A             =   2.449570
 
 Write flags
   LWAVE        =      T    write WAVECAR
   LDOWNSAMPLE  =      F    k-point downsampling of WAVECAR
   LCHARG       =      T    write CHGCAR
   LVTOT        =      F    write LOCPOT, total local potential
   LVHAR        =      F    write LOCPOT, Hartree potential only
   LELF         =      F    write electronic localiz. function (ELF)
   LORBIT       =     11    0 simple, 1 ext, 2 COOP (PROOUT), +10 PAW based schemes


 Dipole corrections
   LMONO  =      F    monopole corrections only (constant potential shift)
   LDIPOL =      F    correct potential (dipole corrections)
   IDIPOL =      0    1-x, 2-y, 3-z, 4-all directions 
   EPSILON=  1.0000000 bulk dielectric constant

 LDA+U is selected, type is set to LDAUTYPE =  2
   angular momentum for each species LDAUL =    -1    2   -1   -1
   U (eV)           for each species LDAUU =   0.0  4.2  0.0  0.0
   J (eV)           for each species LDAUJ =   0.0  0.0  0.0  0.0
 Exchange correlation treatment:
   GGA     =    PS    GGA type
   LEXCH   =    14    internal setting for exchange type
   VOSKOWN=      0    Vosko Wilk Nusair interpolation
   LHFCALC =     F    Hartree Fock is set to
   LHFONE  =     F    Hartree Fock one center treatment
   AEXX    =    0.0000 exact exchange contribution

 Linear response parameters
   LEPSILON=     F    determine dielectric tensor
   LRPA    =     F    only Hartree local field effects (RPA)
   LNABLA  =     F    use nabla operator in PAW spheres
   LVEL    =     F    velocity operator in full k-point grid
   LINTERFAST=   F  fast interpolation
   KINTER  =     0    interpolate to denser k-point grid
   CSHIFT  =0.1000    complex shift for real part using Kramers Kronig
   OMEGAMAX=  -1.0    maximum frequency
   DEG_THRESHOLD= 0.2000000E-02 threshold for treating states as degnerate
   RTIME   =   -0.100 relaxation time in fs
  (WPLASMAI=    0.000 imaginary part of plasma frequency in eV, 0.658/RTIME)
   DFIELD  = 0.0000000 0.0000000 0.0000000 field for delta impulse in time
 
 Orbital magnetization related:
   ORBITALMAG=     F  switch on orbital magnetization
   LCHIMAG   =     F  perturbation theory with respect to B field
   DQ        =  0.001000  dq finite difference perturbation B field
   LLRAUG    =     F  two centre corrections for induced B field



--------------------------------------------------------------------------------------------------------


 quasi-Newton-method for relaxation of ions
 charge density and potential will be updated during run
 spin polarized calculation
 Variant of blocked Davidson
 Davidson routine will perform the subspace rotation
 perform sub-space diagonalisation
    after iterative eigenvector-optimisation
 modified Broyden-mixing scheme, WC =      100.0
 initial mixing is a Kerker type mixing with AMIX =  0.4000 and BMIX =      1.0000
 Hartree-type preconditioning will be used
 using additional bands          202
 real space projection scheme for non local part
 use partial core corrections
 calculate Harris-corrections to forces 
   (improved forces if not selfconsistent)
 use gradient corrections 
 use of overlap-Matrix (Vanderbilt PP)
 Gauss-broadening in eV      SIGMA  =   0.01


--------------------------------------------------------------------------------------------------------


  energy-cutoff  :      500.00
  volume of cell :     3671.03
      direct lattice vectors                 reciprocal lattice vectors
    15.426331000  0.000000000  0.000000000     0.064824228  0.000000000  0.000000000
     0.000000000 15.426331000  0.000000000     0.000000000  0.064824228  0.000000000
     0.000000000  0.000000000 15.426331000     0.000000000  0.000000000  0.064824228

  length of vectors
    15.426331000 15.426331000 15.426331000     0.064824228  0.064824228  0.064824228


 
 old parameters found on file WAVECAR:
  energy-cutoff  :      500.00
  volume of cell :     3671.03
      direct lattice vectors                 reciprocal lattice vectors
    15.426331000  0.000000000  0.000000000     0.064824228  0.000000000  0.000000000
     0.000000000 15.426331000  0.000000000     0.000000000  0.064824228  0.000000000
     0.000000000  0.000000000 15.426331000     0.000000000  0.000000000  0.064824228

  length of vectors

 
 k-points in units of 2pi/SCALE and weight: Title                                   
   0.01620606  0.01620606  0.01620606       0.250
  -0.01620606  0.01620606  0.01620606       0.250
   0.01620606 -0.01620606  0.01620606       0.250
  -0.01620606 -0.01620606  0.01620606       0.250
 
 k-points in reciprocal lattice and weights: Title                                   
   0.25000000  0.25000000  0.25000000       0.250
  -0.25000000  0.25000000  0.25000000       0.250
   0.25000000 -0.25000000  0.25000000       0.250
  -0.25000000 -0.25000000  0.25000000       0.250
 
 position of ions in fractional coordinates (direct lattice) 
   0.87471716  0.55294304  0.12133821
   0.99542745  0.99546694  0.99486007
   0.99938297  0.99153771  0.49378089
   0.01022820  0.49465075  0.99513708
   0.99353695  0.50313177  0.50738786
   0.49435436  0.99449526  0.99985467
   0.50095843  0.00809123  0.49979532
   0.50310126  0.49551276  0.99575853
   0.49149348  0.49919593  0.49482838
   0.00687814  0.00247949  0.25608353
   0.00136975  0.00734685  0.75718974
   0.99428411  0.49517940  0.25295103
   0.99288560  0.49952651  0.74118724
   0.50660270  0.00825692  0.25046787
   0.49274655  0.00509374  0.75188876
   0.49146024  0.49751941  0.25710213
   0.50094935  0.50428230  0.75809905
   0.99545598  0.25731143  0.00160969
   0.99853280  0.24843395  0.49107884
   0.99851678  0.75831122  0.00650841
   0.99703678  0.75635514  0.50638341
   0.49493971  0.25815304  0.00118309
   0.50833706  0.24550610  0.49921423
   0.50743769  0.75669703  0.99929204
   0.50628122  0.75289018  0.50906510
   0.99924420  0.25891245  0.25456470
   0.00658442  0.24246553  0.74770482
   0.00736518  0.74933807  0.24314129
   0.99255315  0.75057239  0.74351252
   0.50875752  0.24290530  0.25160095
   0.50687420  0.24299857  0.75035970
   0.50679457  0.75259230  0.25142973
   0.50141627  0.74214007  0.74338875
   0.25645942  0.99884614  0.00615007
   0.24994182  0.99364555  0.50654668
   0.24623047  0.50835581  0.99718042
   0.25397255  0.49421096  0.50595041
   0.75732301  0.00076964  0.99439192
   0.75020139  0.00639501  0.49444333
   0.73884517  0.50246258  0.00479427
   0.75504448  0.49826200  0.50728224
   0.24476808  0.00195645  0.24381603
   0.25757453  0.99780531  0.74432399
   0.25486296  0.49277627  0.25153316
   0.24712669  0.50606021  0.74056167
   0.74461299  0.99955029  0.25582896
   0.74823429  0.00649163  0.75659558
   0.75017928  0.50047214  0.24711432
   0.75744235  0.49875859  0.74372272
   0.25729260  0.25157837  0.00599763
   0.25299075  0.25661382  0.50550038
   0.25209754  0.74304020  0.99319459
   0.25129787  0.75524130  0.49244211
   0.75732646  0.25128968  0.00763444
   0.74275921  0.24242608  0.49818377
   0.74142072  0.75124387  0.99355516
   0.74135036  0.75305047  0.49427345
   0.25161255  0.25757282  0.24369273
   0.24406605  0.25150752  0.74376164
   0.24396341  0.74887646  0.25517466
   0.24776844  0.74169444  0.75629448
   0.74290453  0.25098619  0.24283100
   0.74428112  0.24247141  0.75145702
   0.74496388  0.75173455  0.25708135
   0.75713723  0.75186519  0.75673160
   0.00799342  0.50555121  0.62461681
   0.99614228  0.00218695  0.37620399
   0.00002002  0.99929824  0.87325464
   0.49981517  0.49371295  0.37534906
   0.49444974  0.49695896  0.87434529
   0.99492140  0.74102511  0.12569097
   0.99845894  0.74295509  0.62447410
   0.49723265  0.75291405  0.62467293
   0.99452833  0.25059573  0.37660545
   0.25471928  0.00289034  0.12534013
   0.25417649  0.00302491  0.62534150
   0.23956252  0.49558014  0.62534921
   0.75579106  0.50819329  0.12178459
   0.74563715  0.49696374  0.62541218
   0.75024956  0.99598605  0.37636289
   0.74630893  0.99587917  0.87394366
   0.24597855  0.24977288  0.12545058
   0.25219205  0.24938522  0.62517445
   0.74298254  0.25381395  0.12607804
   0.25142855  0.74677236  0.37425393
   0.24810408  0.75229499  0.87508464
   0.74977176  0.75853053  0.37478370
   0.74524462  0.75823264  0.87507975
   0.12672106  0.50453810  0.99430639
   0.62357409  0.50906093  0.99928222
   0.12543530  0.99880334  0.25165106
   0.62512390  0.99578927  0.24968395
   0.62436123  0.25694400  0.49504964
   0.62473358  0.74159763  0.00594746
   0.62415719  0.76178428  0.49966195
   0.12470398  0.25147503  0.74986970
   0.12573093  0.75778977  0.24787395
   0.62548899  0.25221838  0.26171722
   0.62556989  0.25271480  0.74821141
   0.62231949  0.76072759  0.24767651
   0.37611169  0.99936883  0.99302388
   0.37473349  0.50513468  0.50291916
   0.87329583  0.00120960  0.00042457
   0.87491096  0.50255243  0.50056279
   0.37608757  0.99650197  0.75627693
   0.37259342  0.50159703  0.25033212
   0.88089207  0.51012797  0.24232461
   0.87537714  0.50724153  0.74686663
   0.37597422  0.24898017  0.00354604
   0.87484494  0.24952580  0.00498335
   0.87475510  0.74502786  0.75250993
   0.50991719  0.12253507  0.49556449
   0.99652353  0.12597062  0.74765855
   0.50056257  0.12510294  0.26216605
   0.50144821  0.12369451  0.74788181
   0.50136369  0.62536967  0.74999161
   0.00131079  0.37591663  0.00707849
   0.00320704  0.87498634  0.00470251
   0.99554062  0.87459431  0.50195455
   0.50337482  0.37431364  0.00720988
   0.50523950  0.87551948  0.00444270
   0.00127289  0.37382384  0.24388063
   0.25738869  0.62536721  0.00154005
   0.74190993  0.12479428  0.50228138
   0.24830375  0.62458377  0.74968539
   0.75139379  0.12496159  0.74771092
   0.25208383  0.37301678  0.49359248
   0.25249385  0.87557718  0.49949748
   0.24648692  0.37444335  0.25605796
   0.99972704  0.00539855  0.12672582
   0.00331625  0.00076668  0.62388195
   0.99946084  0.51657543  0.12304169
   0.49490413  0.00754426  0.12638194
   0.49742708  0.99535536  0.62309119
   0.49731442  0.50796929  0.12650312
   0.50653970  0.50032981  0.62453483
   0.00207837  0.49225855  0.37699908
   0.99491393  0.49475583  0.87226034
   0.50325082  0.98937112  0.37696104
   0.51416504  0.99950473  0.87506390
   0.00786682  0.24265241  0.12684792
   0.99939053  0.25396027  0.62158979
   0.50890291  0.23927126  0.12675263
   0.49638282  0.24757909  0.62311761
   0.49279483  0.74573923  0.12657964
   0.99577434  0.25460021  0.87440784
   0.99652324  0.75371534  0.37500428
   0.00407201  0.75285941  0.87439778
   0.49089208  0.26163212  0.37615459
   0.50013902  0.25190614  0.87470967
   0.49577973  0.75490814  0.37554498
   0.50198551  0.75313643  0.87391132
   0.24724981  0.49471644  0.12387258
   0.74957848  0.00719638  0.12652985
   0.74659377  0.99832854  0.62355097
   0.25236628  0.00133765  0.37571334
   0.24366121  0.99551128  0.87450627
   0.24444324  0.51073878  0.37502307
   0.25860661  0.49789645  0.87314466
   0.74666688  0.50239036  0.37705813
   0.75386607  0.50166874  0.87451689
   0.25531916  0.75447450  0.12451230
   0.25145346  0.75106495  0.62489548
   0.75141550  0.25815565  0.62362103
   0.75598122  0.74302818  0.12531677
   0.75046961  0.74665412  0.62457513
   0.25306159  0.24331467  0.37467680
   0.25223699  0.25065667  0.87513288
   0.76172140  0.24563362  0.37488428
   0.75259183  0.25005992  0.87636734
   0.12607161  0.00363184  0.00215369
   0.12463178  0.00347754  0.49906511
   0.12270561  0.49922131  0.49287016
   0.62538700  0.00333825  0.00725262
   0.62373919  0.98372243  0.50296616
   0.62506259  0.49345664  0.49861312
   0.12681471  0.99993749  0.74734189
   0.12506788  0.50299850  0.24564209
   0.12314337  0.49385157  0.76211930
   0.62366319  0.99483853  0.74175057
   0.61889319  0.49193171  0.24582601
   0.62667662  0.49382371  0.75559715
   0.12495875  0.24920738  0.99440112
   0.12350307  0.24697604  0.49840543
   0.12539553  0.74402606  0.00412966
   0.12381576  0.75023903  0.49897729
   0.62661858  0.24925380  0.99416127
   0.12471965  0.24151659  0.25679054
   0.12324935  0.75358923  0.74771843
   0.62625428  0.75401319  0.74640649
   0.37737358  0.00752771  0.49591584
   0.37346656  0.49439257  0.00520410
   0.87451310  0.00768009  0.50796443
   0.87771863  0.50422077  0.00607622
   0.37730502  0.00024112  0.25620703
   0.37454673  0.49776221  0.74160951
   0.87391613  0.00325673  0.24776899
   0.87429070  0.99396828  0.74316893
   0.37877529  0.24158034  0.49875850
   0.37670820  0.75806071  0.99786922
   0.37677416  0.74313200  0.49883896
   0.87400269  0.24849969  0.50545417
   0.87252730  0.75495524  0.99675087
   0.87215490  0.74206054  0.50031444
   0.37790534  0.25104968  0.24683831
   0.37635195  0.24993669  0.75199837
   0.37672376  0.74621366  0.24980761
   0.37492254  0.75479261  0.75226819
   0.87459107  0.24641382  0.24428338
   0.87438679  0.25432302  0.74731415
   0.87377608  0.74205210  0.25118786
   0.00267284  0.12727868  0.99830516
   0.99905336  0.12538444  0.50534576
   0.99385828  0.62531984  0.99209593
   0.00249985  0.62642552  0.48918083
   0.50397089  0.12480102  0.99698114
   0.48873600  0.62776249  0.99836266
   0.50802222  0.62663135  0.49658869
   0.99724437  0.12720324  0.24986586
   0.00913369  0.62500459  0.26157727
   0.00976623  0.62457912  0.75854058
   0.50467082  0.62686438  0.25551413
   0.00031065  0.37393712  0.50265783
   0.49281181  0.37190610  0.50715043
   0.48770502  0.87808525  0.49892847
   0.99613643  0.37471809  0.74713897
   0.99093103  0.87602836  0.24714591
   0.00024536  0.87556390  0.74505457
   0.49539468  0.37150855  0.24059792
   0.49703878  0.37328065  0.74443471
   0.49125529  0.87674158  0.24564049
   0.50256358  0.87523434  0.75241320
   0.24732025  0.12496675  0.99371114
   0.24858898  0.12421823  0.49701440
   0.24489441  0.62639960  0.50415419
   0.74549495  0.12659381  0.99851843
   0.76253269  0.62715927  0.99316863
   0.74234231  0.62586138  0.49898781
   0.25547627  0.12618940  0.25353828
   0.25128885  0.12441358  0.75699874
   0.24685559  0.62443467  0.24135282
   0.75215661  0.12535318  0.25255426
   0.73778595  0.62963940  0.25541430
   0.74020485  0.62541506  0.75142458
   0.24803069  0.37622136  0.99693127
   0.24418523  0.87413516  0.00255895
   0.74913696  0.37662995  0.99471567
   0.75512905  0.37244956  0.49374908
   0.74480986  0.87568085  0.01249064
   0.76180695  0.87666187  0.50749840
   0.25348480  0.37596021  0.75596268
   0.25881729  0.87584004  0.25119548
   0.24671585  0.87340817  0.74685544
   0.75894277  0.37149064  0.25981701
   0.75436787  0.37417233  0.75516008
   0.76022138  0.87579070  0.23838168
   0.75081540  0.87575675  0.74114929
 
 position of ions in cartesian coordinates  (Angst):
  13.49367649  8.52988241  1.87180342
  15.35579340 15.35640252 15.34704079
  15.41681256 15.29578895  7.61722741
   0.15778363  7.63064625 15.35131395
  15.32662979  7.76147727  7.82713314
   7.62607396 15.34141301 15.42408911
   7.72795049  0.12481806  7.71000807
   7.76100651  7.64394391 15.36090061
   7.58194104  7.70076170  7.63338645
   0.10610444  0.03824949  3.95042929
   0.02113026  0.11333489 11.68065954
  15.33815579  7.63880129  3.90210626
  15.31658194  7.70586136 11.43379964
   7.81502101  0.12737400  3.86380027
   7.60127130  0.07857769 11.59888495
   7.58142832  7.67489906  3.96614261
   7.72781053  7.77922575 11.69468690
  15.35623348  3.96937135  0.02483159
  15.40369743  3.83242438  7.57554481
  15.40345028 11.69795991  0.10040082
  15.38061932 11.66778471  7.81163807
   7.63510381  3.98235431  0.01825072
   7.84177576  3.78725829  7.70104403
   7.82790181 11.67305890 15.41540979
   7.81006165 11.61433316  7.85300677
  15.41467181  3.99406920  3.92699938
   0.10157345  3.74035353 11.53434205
   0.11361772 11.55953705  3.75077799
  15.31145342 11.57857812 11.46967018
   7.84826186  3.74713758  3.88127960
   7.81920915  3.74857645 11.57529713
   7.81798080 11.60973794  3.87863816
   7.73501330 11.44849831 11.46776095
   3.95622783 15.40853112  0.09487306
   3.85568525 15.32830514  7.81415670
   3.79843273  7.84206497 15.38283521
   3.91786461  7.62386190  7.80495854
  11.68271538  0.01187268 15.33981885
  11.57285489  0.09865158  7.62744645
  11.39767017  7.75115403  0.07395806
  11.64756603  7.68635450  7.82550376
   3.77587339  0.03018082  3.76118675
   3.97342993 15.39247502 11.48218829
   3.93160039  7.60172982  3.88023377
   3.81225814  7.80665234 11.42414952
  11.48664650 15.41939362  3.94650227
  11.54250976  0.10014207 11.67149381
  11.57251394  7.72044884  3.81206724
  11.68455645  7.69401511 11.47291283
   3.96908085  3.88093123  0.09252149
   3.90271900  3.95860974  7.79801612
   3.88894010 11.46238413 15.32134851
   3.87660417 11.65060231  7.59657497
  11.68276866  3.87647775  0.11777141
  11.45804947  3.73974491  7.68514776
  11.43740147 11.58893655 15.32691084
  11.43631597 11.61680582  7.62482579
   3.88145847  3.97340350  3.75928475
   3.76504370  3.87983830 11.47351329
   3.76346037 11.55241612  3.93640870
   3.82215800 11.44162388 11.66684903
  11.46029120  3.87179598  3.74599140
  11.48152685  3.74044427 11.59222478
  11.49205934 11.59650599  3.96582193
  11.67984958 11.59852132 11.67359210
   0.12330911  7.79880036  9.63554573
  15.36682059  0.03373657  5.80344722
   0.00030884 15.41550544 13.47111511
   7.71031422  7.61617938  5.79025888
   7.62754529  7.66625344 13.48793990
  15.34798686 11.43129860  1.93895050
  15.40255810 11.46107112  9.63334416
   7.67047539 11.61470141  9.63641136
  15.34192321  3.86577265  5.80964028
   3.92938399  0.04458737  1.93353830
   3.92101071  0.04666326  9.64672498
   3.69557071  7.64498328  9.64684395
  11.65908307  7.83955796  1.87868937
  11.50244545  7.66632722  9.64781537
  11.57359807 15.36441046  5.80589846
  11.51280860 15.36276173 13.48174424
   3.79454647  3.85307913  1.93524214
   3.89039796  3.84709899  9.64414800
  11.46149453  3.91541799  1.94492159
   3.87862005 11.51995759  5.77336507
   3.82733573 11.60515157 13.49934531
  11.56622736 11.70134307  5.78153742
  11.49639017 11.69674761 13.49926987
   1.95484106  7.78317169 15.33849944
   9.61946031  7.85294240 15.41525834
   1.93500650 15.40787094  3.88205256
   9.64336819 15.36137488  3.85170720
   9.63160297  3.96370325  7.63679955
   9.63734704 11.44013050  0.09174744
   9.62845534 11.75153641  7.70795060
   1.92372483  3.87933703 11.56773823
   1.93956691 11.68991585  3.82378557
   9.64900012  3.89080421  4.03733639
   9.65024814  3.89846221 11.54215687
   9.60010652 11.73523568  3.82073990
   5.80202346 15.41659442 15.31871510
   5.78076281  7.79237476  7.75819743
  13.47175054  0.01865972  0.00654963
  13.49666606  7.75254020  7.72184732
   5.80165127 15.37236919 11.66657830
   5.74774950  7.73780181  3.86170616
  13.58893259  7.86940290  3.73817969
  13.50385744  7.82487581 11.52141191
   5.79990274  3.84085045  0.05470242
  13.49564760  3.84926752  0.07687488
  13.49426166 11.49304638 11.60846721
   7.86615142  1.89026661  7.64474183
  15.37270189  1.94326451 11.53362832
   7.72184389  1.92987939  4.04426030
   7.73550603  1.90815244 11.53707237
   7.73420222  9.64715954 11.56961882
   0.02022072  5.79901442  0.10919519
   0.04947282 13.49782887  0.07254243
  15.35753914 13.49178126  7.74331707
   7.76522659  5.77428618  0.11122203
   7.79399174 13.50605325  0.06853462
   0.01963609  5.76673034  3.76218334
   3.97056306  9.64712156  0.02375729
  11.44494819  1.92511781  7.74835886
   3.83041587  9.63503590 11.56489501
  11.59124925  1.92769878 11.53443617
   3.88872861  5.75428025  7.61432099
   3.89505368 13.50694333  7.70541339
   3.80238881  5.77628703  3.95003479
  15.42212023  0.08327988  1.95491443
   0.05115759  0.01182703  9.62420947
  15.41801381  7.96886358  1.89808188
   7.63455490  0.11638019  1.94960960
   7.67347483 15.35468131  9.61201099
   7.67173680  7.83610245  1.95147897
   7.81404914  7.71825322  9.63428100
   0.03206163  7.59374338  5.81571256
  15.34787164  7.63226712 13.45577673
   7.76331380 15.26236643  5.81512571
   7.93168015 15.41869083 13.49902537
   0.12135614  3.74323638  1.95679806
  15.41692913  3.91767518  9.58884985
   7.85050473  3.69107763  1.95532810
   7.65736566  3.81923701  9.61241853
   7.60201619 11.50402020  1.95265938
  15.36114454  3.92754712 13.48890475
  15.37269738 11.62706230  5.78494012
   0.06281622 11.61385852 13.48874953
   7.57266370  4.03602361  5.80268526
   7.71531013  3.88598748 13.49356097
   7.64806222 11.64546278  5.79328112
   7.74379457 11.61813184 13.48124521
   3.81415743  7.63165950  1.91089943
  11.56324577  0.11101375  1.95189128
  11.51720256 15.40054651  9.61910366
   3.89308574  0.02063497  5.79587838
   3.75879855 15.35708654 13.49042324
   3.77086230  7.87882549  5.78523003
   3.98935123  7.68071549 13.46941847
  11.51833045  7.75004002  5.81662354
  11.62938755  7.73890805 13.49058709
   3.93863789 11.63877338  1.92076800
   3.87900435 11.58617655  9.63984448
  11.59158418  3.98239451  9.62018442
  11.66201658 11.46219864  1.93317805
  11.57699256 11.51813357  9.63490267
   3.90381189  3.75345264  5.77988837
   3.89109128  3.86671272 13.50008952
  11.75056645  3.78922554  5.78308896
  11.60973066  3.85750705 13.51913261
   1.94482235  0.05602600  0.03322361
   1.92261106  0.05364567  7.69874365
   1.89289742  7.70115322  7.60317817
   9.64742693  0.05149699  0.11188129
   9.62200723 15.17522775  7.75892241
   9.64242242  7.61222549  7.69177105
   1.95628565 15.42536675 11.52874340
   1.92933856  7.75942133  3.78935622
   1.89965035  7.61831783 11.75670465
   9.62083484 15.34670849 11.44248988
   9.54725122  7.58870132  3.79219340
   9.66732099  7.61788806 11.65609169
   1.92765502  3.84435553 15.33996081
   1.90519930  3.80993412  7.68856706
   1.93439300 11.47759230  0.06370556
   1.91002285 11.57343559  7.69738876
   9.66642558  3.84507154 15.33626081
   1.92396666  3.72571488  3.96133593
   1.90128525 11.62511684 11.53455198
   9.66080577 11.63165709 11.51431353
   5.82148974  0.11612487  7.65016189
   5.76121884  7.62666337  0.08028024
  13.49052857  0.11847564  7.83602744
  13.53997814  7.77827654  0.09373372
   5.82043219  0.00371959  3.95233447
   5.77788185  7.67864456 11.44031371
  13.48131948  0.05023940  3.82216644
  13.48709774 15.33328373 11.46436986
   5.84311299  3.72669822  7.69401373
   5.81122532 11.69409538 15.39346084
   5.81224292 11.46380022  7.69525494
  13.48265481  3.83343844  7.79730338
  13.45989499 11.64618946 15.37620878
  13.45415024 11.44727145  7.71801622
   5.82969294  3.87277550  3.80780949
   5.80572978  3.85560614 11.60057584
   5.81146543 11.51133889  3.85361492
   5.78367914 11.64368071 11.60473810
  13.49173126  3.80126114  3.76839621
  13.48858002  3.92327111 11.52831543
  13.47915906 11.44714132  3.87490700
   0.04123204  1.96344308 15.40018582
  15.41172779  1.93422180  7.79563092
  15.33158678  9.64639087 15.30440019
   0.03856358  9.66344745  7.54626542
   7.77442171  1.92522180 15.37976109
   7.53940335  9.68407197 15.40107280
   7.83691891  9.66662255  7.66054146
  15.38382169  1.96227927  3.85451340
   0.14089940  9.64152769  4.03517747
   0.15065705  9.63496420 11.70149805
   7.78521904  9.67021736  3.94164560
   0.00479218  5.76847782  7.75416611
   7.60227808  5.73714664  7.82347034
   7.52349907 13.54563376  7.69663578
  15.36673034  5.78052531 11.52561299
  15.28643003 13.51390348  3.81255467
   0.00378500 13.50673848 11.49345844
   7.64212229  5.73101389  3.71154313
   7.66748477  5.75835090 11.48389626
   7.57826676 13.52490586  3.78933155
   7.75271220 13.50165465 11.60697505
   3.81524411  1.92777853 15.32931690
   3.83481583  1.91623151  7.66710861
   3.77782226  9.66304762  7.77724934
  11.50025193  1.95287802 15.40347585
  11.76308169  9.67476656 15.32094800
  11.45161817  9.65474483  7.69755108
   3.94106157  1.94663948  3.91116545
   3.87646498  1.91924499 11.67771319
   3.80807597  9.63273590  3.72318851
  11.60301684  1.93373960  3.89598555
  11.38133034  9.71302573  3.94010555
  11.41864498  9.64785970 11.59172423
   3.82620351  5.80371527 15.37899174
   3.76688223 13.48469833  0.03947520
  11.55643472  5.81001822 15.34481318
  11.64887068  5.74553025  7.61673673
  11.48968336 13.50854263  0.19268476
  11.75188617 13.52367620  7.82883830
   3.91034036  5.79968664 11.66173051
   3.99260115 13.51099843  3.87502459
   3.80592041 13.47348354 11.52123918
  11.70770236  5.73073760  4.00802325
  11.63712851  5.77210629 11.64934940
  11.72742665 13.51023722  3.67735468
  11.58232685 13.50971355 11.43321427
 


--------------------------------------------------------------------------------------------------------


 k-point  1 :   0.2500 0.2500 0.2500  plane waves:   93161
 k-point  2 :  -0.2500 0.2500 0.2500  plane waves:   93161
 k-point  3 :   0.2500-0.2500 0.2500  plane waves:   93161
 k-point  4 :  -0.2500-0.2500 0.2500  plane waves:   93161

 maximum and minimum number of plane-waves per node :     11686    11606

 maximum number of plane-waves:     93161
 maximum index in each direction: 
   IXMAX=   28   IYMAX=   28   IZMAX=   27
   IXMIN=  -28   IYMIN=  -28   IZMIN=  -28


 real space projection operators:
  total allocation   :     105576.98 KBytes
  max/ min on nodes  :      13238.18      13159.69


 parallel 3D FFT for wavefunctions:
    minimum data exchange during FFTs selected (reduces bandwidth)
 parallel 3D FFT for charge:
    minimum data exchange during FFTs selected (reduces bandwidth)


 total amount of memory used by VASP MPI-rank0   291506. kBytes
=======================================================================

   base      :      30000. kBytes
   nonlr-proj:      49471. kBytes
   fftplans  :      27976. kBytes
   grid      :      34041. kBytes
   one-center:       1026. kBytes
   wavefun   :     148992. kBytes
 
     INWAV:  cpu time   59.3592: real time   62.8643
 Broyden mixing: mesh for mixing (old mesh)
   NGX = 57   NGY = 57   NGZ = 57
  (NGX  =240   NGY  =240   NGZ  =240)
  gives a total of 185193 points

 charge density for first step will be calculated from the start-wavefunctions


--------------------------------------------------------------------------------------------------------


 Maximum index for non-local projection operator          969
 Maximum index for augmentation-charges         3297 (set IRDMAX)


--------------------------------------------------------------------------------------------------------


 initial charge from wavefunction
 First call to EWALD:  gamma=   0.115
 Maximum number of real-space cells 3x 3x 3
 Maximum number of reciprocal cells 3x 3x 3

    FEWALD:  cpu time    0.0285: real time    0.0382


--------------------------------------- Iteration      1(   1)  ---------------------------------------


    POTLOK:  cpu time    0.2879: real time    0.3147
    SETDIJ:  cpu time    1.3898: real time    1.4203
     EDDAV:  cpu time   77.8015: real time   79.1056
       DOS:  cpu time    0.0021: real time    0.0021
    CHARGE:  cpu time    5.2794: real time    5.2830
    MIXING:  cpu time    0.0104: real time    0.0105
    --------------------------------------------
      LOOP:  cpu time   84.7712: real time   86.1363

 eigenvalue-minimisations  : 11052
 total energy-change (2. order) :-0.1757863E+04  (-0.4033817E-07)
 number of electron    1923.0000026 magnetization       1.0000000
 augmentation part      497.0371616 magnetization       0.5849296

 Broyden mixing:
  rms(total) = 0.18701E-03    rms(broyden)= 0.10478E-03
  rms(prec ) = 0.11326E-03
  weight for this iteration     100.00
  WARNING: grid for Broyden might be to small

 Free energy of the ion-electron system (eV)
  ---------------------------------------------------
  alpha Z        PSCENC =      6118.73324990
  Ewald energy   TEWEN  =   -103129.91820345
  -Hartree energ DENC   =    -65488.58051708
  -exchange      EXHF   =         0.00000000
  -V(xc)+E(xc)   XCENC  =      8972.45600782
  PAW double counting   =    198657.72104349  -199664.55702307
  entropy T*S    EENTRO =        -0.00000000
  eigenvalues    EBANDS =    -25800.97053838
  atomic energy  EATOM  =    178577.25249613
  Solvation  Ediel_sol  =         0.00000000
  ---------------------------------------------------
  free energy    TOTEN  =     -1757.86348465 eV

  energy without entropy =    -1757.86348465  energy(sigma->0) =    -1757.86348465


--------------------------------------------------------------------------------------------------------




--------------------------------------- Iteration      1(   2)  ---------------------------------------


    POTLOK:  cpu time    0.3099: real time    0.3121
    SETDIJ:  cpu time    1.4347: real time    1.4360
     EDDAV:  cpu time   75.0016: real time   75.5414
       DOS:  cpu time    0.0025: real time    0.0025
    --------------------------------------------
      LOOP:  cpu time   76.7486: real time   77.2919

 eigenvalue-minimisations  : 10416
 total energy-change (2. order) :-0.9924406E-08  (-0.1718129E-07)
 number of electron    1923.0000026 magnetization       1.0000000
 augmentation part      497.0371616 magnetization       0.5849296

 Free energy of the ion-electron system (eV)
  ---------------------------------------------------
  alpha Z        PSCENC =      6118.73324990
  Ewald energy   TEWEN  =   -103129.91820345
  -Hartree energ DENC   =    -65488.58014175
  -exchange      EXHF   =         0.00000000
  -V(xc)+E(xc)   XCENC  =      8972.45607635
  PAW double counting   =    198657.74203082  -199664.57814426
  entropy T*S    EENTRO =        -0.00000000
  eigenvalues    EBANDS =    -25800.97084841
  atomic energy  EATOM  =    178577.25249613
  Solvation  Ediel_sol  =         0.00000000
  ---------------------------------------------------
  free energy    TOTEN  =     -1757.86348466 eV

  energy without entropy =    -1757.86348466  energy(sigma->0) =    -1757.86348466


--------------------------------------------------------------------------------------------------------




 average (electrostatic) potential at core
  the test charge radii are     0.7079  1.0397  0.7215  0.7167
  (the norm of the test charge is              1.0000)
       1 -62.5506       2 -58.4399       3 -58.7952       4 -58.6991       5 -58.8442
       6 -58.7930       7 -59.7621       8 -58.4232       9 -58.6569      10 -58.8290
      11 -58.5952      12 -58.5199      13 -58.8171      14 -59.0405      15 -58.8761
      16 -58.6712      17 -58.6609      18 -58.8805      19 -59.4528      20 -58.5874
      21 -58.8534      22 -58.6057      23 -59.4148      24 -58.8243      25 -58.8518
      26 -58.9572      27 -58.6791      28 -58.6792      29 -58.8541      30 -59.0537
      31 -58.9445      32 -59.3760      33 -58.7649      34 -58.7794      35 -58.8150
      36 -58.7174      37 -58.3972      38 -58.6794      39 -59.1100      40 -58.4514
      41 -58.8817      42 -58.7829      43 -58.8444      44 -58.6514      45 -58.5819
      46 -59.1072      47 -58.7989      48 -56.7558      49 -58.8531      50 -58.7063
      51 -58.6455      52 -58.6812      53 -58.7958      54 -58.8902      55 -59.2016
      56 -58.8288      57 -58.9836      58 -58.6927      59 -58.7283      60 -58.7338
      61 -58.7005      62 -58.9151      63 -58.8845      64 -59.0327      65 -58.8676
      66 -74.1907      67 -73.9737      68 -73.8114      69 -73.8328      70 -73.7909
      71 -73.8459      72 -74.0006      73 -74.2181      74 -74.5211      75 -73.9315
      76 -73.9941      77 -73.9044      78 -73.6187      79 -74.0396      80 -74.2421
      81 -74.0069      82 -73.8883      83 -73.8727      84 -74.3062      85 -73.9191
      86 -73.8830      87 -74.1631      88 -74.0684      89 -74.0190      90 -73.8935
      91 -73.9947      92 -74.2021      93 -74.6128      94 -74.1521      95 -74.2488
      96 -73.9363      97 -73.9437      98 -74.3366      99 -74.0602     100 -74.2999
     101 -73.9294     102 -73.8055     103 -73.8334     104 -73.9811     105 -74.1966
     106 -73.8782     107 -73.6955     108 -74.1342     109 -73.8829     110 -74.0342
     111 -74.1747     112 -74.8361     113 -74.0409     114 -74.3839     115 -74.0765
     116 -73.9610     117 -73.9669     118 -73.7865     119 -74.2217     120 -73.8135
     121 -73.9622     122 -74.2009     123 -74.0298     124 -74.4638     125 -74.0083
     126 -74.1781     127 -73.8089     128 -73.9541     129 -74.0286     130 -78.3519
     131 -78.3469     132 -79.3647     133 -79.5880     134 -79.8573     135 -78.2598
     136 -78.2702     137 -79.1009     138 -79.1273     139 -79.8808     140 -79.5158
     141 -79.1281     142 -79.0625     143 -79.5155     144 -79.6839     145 -79.3593
     146 -79.1719     147 -78.3698     148 -78.3773     149 -79.7301     150 -79.4427
     151 -79.2111     152 -79.0832     153 -78.9959     154 -78.5408     155 -78.5455
     156 -78.3964     157 -78.3740     158 -78.7857     159 -78.7971     160 -78.5451
     161 -78.5090     162 -78.3633     163 -78.3210     164 -79.3827     165 -78.5040
     166 -78.5539     167 -78.3468     168 -78.3156     169 -79.2235     170 -79.1127
     171 -78.3163     172 -79.5180     173 -78.3536     174 -78.2778     175 -79.8596
     176 -78.3181     177 -78.9297     178 -78.4220     179 -78.8965     180 -78.9821
     181 -78.3662     182 -78.8752     183 -78.3812     184 -79.4280     185 -79.0491
     186 -79.1610     187 -78.3869     188 -79.2231     189 -78.9730     190 -78.9937
     191 -79.7931     192 -78.5410     193 -79.6032     194 -78.5630     195 -78.5364
     196 -79.0148     197 -78.4875     198 -79.0996     199 -79.1475     200 -78.9305
     201 -79.0413     202 -79.4108     203 -78.8869     204 -79.0377     205 -79.0170
     206 -78.4320     207 -78.4974     208 -79.1552     209 -79.1350     210 -78.4771
     211 -78.5626     212 -78.3247     213 -79.2698     214 -78.3301     215 -79.1045
     216 -78.3304     217 -78.3366     218 -79.2574     219 -78.9435     220 -78.9459
     221 -79.1894     222 -79.3056     223 -79.4186     224 -79.2190     225 -79.2523
     226 -78.9968     227 -79.1213     228 -78.9665     229 -79.0533     230 -78.4864
     231 -79.2515     232 -78.4643     233 -79.0218     234 -78.3288     235 -78.3422
     236 -79.3782     237 -79.3708     238 -79.2658     239 -78.9156     240 -79.0793
     241 -78.8659     242 -79.5592     243 -79.2333     244 -79.2200     245 -78.8110
     246 -78.8737     247 -79.4188     248 -79.1229     249 -79.3915     250 -79.1892
     251 -78.8771     252 -79.0790     253 -78.9058     254 -79.2574     255 -79.0119
     256 -79.5517     257 -79.0415
 
 
 
 E-fermi :  -0.6895     XC(G=0):  -9.0360     alpha+bet : -7.7421


 spin component 1

 k-point     1 :       0.2500    0.2500    0.2500
  band No.  band energies     occupation 
      1     -43.2389      1.00000
      2     -35.7907      1.00000
      3     -35.7679      1.00000
      4     -35.5915      1.00000
      5     -35.4564      1.00000
      6     -35.4499      1.00000
      7     -35.4320      1.00000
      8     -35.3615      1.00000
      9     -35.3555      1.00000
     10     -35.3019      1.00000
     11     -35.2869      1.00000
     12     -35.2827      1.00000
     13     -35.2028      1.00000
     14     -35.1552      1.00000
     15     -35.1549      1.00000
     16     -35.1532      1.00000
     17     -35.1138      1.00000
     18     -35.1126      1.00000
     19     -35.1074      1.00000
     20     -35.0867      1.00000
     21     -35.0768      1.00000
     22     -35.0251      1.00000
     23     -35.0053      1.00000
     24     -34.9902      1.00000
     25     -34.9856      1.00000
     26     -34.9834      1.00000
     27     -34.9762      1.00000
     28     -34.9681      1.00000
     29     -34.9539      1.00000
     30     -34.9487      1.00000
     31     -34.9456      1.00000
     32     -34.9409      1.00000
     33     -34.9209      1.00000
     34     -34.9176      1.00000
     35     -34.9137      1.00000
     36     -34.9111      1.00000
     37     -34.9082      1.00000
     38     -34.9068      1.00000
     39     -34.8992      1.00000
     40     -34.8925      1.00000
     41     -34.8892      1.00000
     42     -34.8880      1.00000
     43     -34.8846      1.00000
     44     -34.8836      1.00000
     45     -34.8811      1.00000
     46     -34.8743      1.00000
     47     -34.8714      1.00000
     48     -34.8645      1.00000
     49     -34.8619      1.00000
     50     -34.8610      1.00000
     51     -34.8583      1.00000
     52     -34.8534      1.00000
     53     -34.8512      1.00000
     54     -34.8439      1.00000
     55     -34.8407      1.00000
     56     -34.8404      1.00000
     57     -34.8302      1.00000
     58     -34.8165      1.00000
     59     -34.8162      1.00000
     60     -34.8155      1.00000
     61     -34.8140      1.00000
     62     -34.8115      1.00000
     63     -34.8091      1.00000
     64     -34.8054      1.00000
     65     -34.8036      1.00000
     66     -34.7875      1.00000
     67     -34.7860      1.00000
     68     -34.7857      1.00000
     69     -34.7842      1.00000
     70     -34.7810      1.00000
     71     -34.7802      1.00000
     72     -34.7801      1.00000
     73     -34.7761      1.00000
     74     -34.7754      1.00000
     75     -34.7618      1.00000
     76     -34.7600      1.00000
     77     -34.7580      1.00000
     78     -34.7480      1.00000
     79     -34.7449      1.00000
     80     -34.7446      1.00000
     81     -34.7424      1.00000
     82     -34.7364      1.00000
     83     -34.7342      1.00000
     84     -34.7330      1.00000
     85     -34.7294      1.00000
     86     -34.7272      1.00000
     87     -34.7234      1.00000
     88     -34.7225      1.00000
     89     -34.7218      1.00000
     90     -34.7197      1.00000
     91     -34.7154      1.00000
     92     -34.7152      1.00000
     93     -34.7134      1.00000
     94     -34.7087      1.00000
     95     -34.7078      1.00000
     96     -34.7050      1.00000
     97     -34.7016      1.00000
     98     -34.7006      1.00000
     99     -34.6997      1.00000
    100     -34.6983      1.00000
    101     -34.6970      1.00000
    102     -34.6966      1.00000
    103     -34.6930      1.00000
    104     -34.6914      1.00000
    105     -34.6907      1.00000
    106     -34.6905      1.00000
    107     -34.6887      1.00000
    108     -34.6843      1.00000
    109     -34.6830      1.00000
    110     -34.6798      1.00000
    111     -34.6770      1.00000
    112     -34.6769      1.00000
    113     -34.6711      1.00000
    114     -34.6698      1.00000
    115     -34.6690      1.00000
    116     -34.6689      1.00000
    117     -34.6637      1.00000
    118     -34.6614      1.00000
    119     -34.6562      1.00000
    120     -34.6541      1.00000
    121     -34.6539      1.00000
    122     -34.6484      1.00000
    123     -34.6476      1.00000
    124     -34.6423      1.00000
    125     -34.6326      1.00000
    126     -34.6325      1.00000
    127     -34.6319      1.00000
    128     -34.6251      1.00000
    129     -34.6204      1.00000
    130     -34.6198      1.00000
    131     -34.6180      1.00000
    132     -34.6160      1.00000
    133     -34.6151      1.00000
    134     -34.6123      1.00000
    135     -34.6120      1.00000
    136     -34.6101      1.00000
    137     -34.6098      1.00000
    138     -34.6051      1.00000
    139     -34.6008      1.00000
    140     -34.5997      1.00000
    141     -34.5962      1.00000
    142     -34.5917      1.00000
    143     -34.5881      1.00000
    144     -34.5783      1.00000
    145     -34.5762      1.00000
    146     -34.5739      1.00000
    147     -34.5696      1.00000
    148     -34.5627      1.00000
    149     -34.5585      1.00000
    150     -34.5578      1.00000
    151     -34.5547      1.00000
    152     -34.5511      1.00000
    153     -34.5489      1.00000
    154     -34.5443      1.00000
    155     -34.5436      1.00000
    156     -34.5418      1.00000
    157     -34.5387      1.00000
    158     -34.5330      1.00000
    159     -34.5286      1.00000
    160     -34.5212      1.00000
    161     -34.5195      1.00000
    162     -34.5158      1.00000
    163     -34.5103      1.00000
    164     -34.5069      1.00000
[...]
   81        1.574   3.461   0.000   5.035
   82        1.574   3.462   0.000   5.036
   83        1.574   3.461   0.000   5.035
   84        1.576   3.475   0.000   5.052
   85        1.575   3.463   0.000   5.039
   86        1.575   3.467   0.000   5.042
   87        1.575   3.464   0.000   5.040
   88        1.575   3.466   0.000   5.041
   89        1.576   3.473   0.000   5.049
   90        1.576   3.470   0.000   5.046
   91        1.574   3.461   0.000   5.036
   92        1.574   3.461   0.000   5.036
   93        1.577   3.472   0.000   5.050
   94        1.577   3.472   0.000   5.049
   95        1.576   3.475   0.000   5.051
   96        1.575   3.465   0.000   5.039
   97        1.575   3.466   0.000   5.041
   98        1.576   3.474   0.000   5.050
   99        1.575   3.464   0.000   5.039
  100        1.576   3.458   0.000   5.033
  101        1.574   3.459   0.000   5.033
  102        1.575   3.461   0.000   5.036
  103        1.576   3.460   0.000   5.036
  104        1.574   3.463   0.000   5.037
  105        1.577   3.472   0.000   5.049
  106        1.576   3.469   0.000   5.045
  107        1.570   3.476   0.000   5.046
  108        1.576   3.475   0.000   5.051
  109        1.575   3.464   0.000   5.038
  110        1.575   3.462   0.000   5.037
  111        1.576   3.473   0.000   5.049
  112        1.577   3.464   0.000   5.041
  113        1.576   3.474   0.000   5.051
  114        1.576   3.476   0.000   5.052
  115        1.574   3.465   0.000   5.040
  116        1.575   3.463   0.000   5.038
  117        1.574   3.463   0.000   5.037
  118        1.576   3.463   0.000   5.038
  119        1.576   3.477   0.000   5.053
  120        1.575   3.462   0.000   5.037
  121        1.575   3.464   0.000   5.038
  122        1.576   3.469   0.000   5.045
  123        1.577   3.475   0.000   5.052
  124        1.576   3.472   0.000   5.048
  125        1.576   3.476   0.000   5.051
  126        1.576   3.471   0.000   5.047
  127        1.575   3.460   0.000   5.034
  128        1.574   3.461   0.000   5.036
  129        1.576   3.472   0.000   5.049
  130        1.737   4.369   0.000   6.106
  131        1.737   4.370   0.000   6.107
  132        1.736   4.389   0.000   6.125
  133        1.738   4.388   0.000   6.126
  134        1.739   4.385   0.000   6.124
  135        1.737   4.369   0.000   6.106
  136        1.736   4.367   0.000   6.103
  137        1.739   4.384   0.000   6.122
  138        1.739   4.384   0.000   6.122
  139        1.739   4.388   0.000   6.127
  140        1.739   4.387   0.000   6.126
  141        1.738   4.380   0.000   6.118
  142        1.738   4.381   0.000   6.118
  143        1.738   4.387   0.000   6.125
  144        1.739   4.387   0.000   6.126
  145        1.738   4.382   0.000   6.120
  146        1.737   4.381   0.000   6.119
  147        1.736   4.369   0.000   6.105
  148        1.736   4.368   0.000   6.104
  149        1.739   4.386   0.000   6.125
  150        1.738   4.389   0.000   6.127
  151        1.738   4.376   0.000   6.114
  152        1.738   4.380   0.000   6.118
  153        1.737   4.382   0.000   6.120
  154        1.737   4.371   0.000   6.108
  155        1.737   4.372   0.000   6.109
  156        1.737   4.369   0.000   6.106
  157        1.737   4.368   0.000   6.104
  158        1.738   4.376   0.000   6.115
  159        1.738   4.377   0.000   6.115
  160        1.737   4.380   0.000   6.117
  161        1.737   4.373   0.000   6.110
  162        1.737   4.369   0.000   6.106
  163        1.736   4.367   0.000   6.103
  164        1.738   4.380   0.000   6.118
  165        1.736   4.366   0.000   6.103
  166        1.736   4.370   0.000   6.106
  167        1.737   4.370   0.000   6.106
  168        1.737   4.370   0.000   6.107
  169        1.738   4.377   0.000   6.116
  170        1.738   4.380   0.000   6.118
  171        1.737   4.370   0.000   6.107
  172        1.738   4.389   0.000   6.127
  173        1.737   4.371   0.000   6.108
  174        1.737   4.369   0.000   6.106
  175        1.739   4.383   0.000   6.121
  176        1.737   4.367   0.000   6.104
  177        1.738   4.380   0.000   6.117
  178        1.737   4.375   0.000   6.112
  179        1.738   4.376   0.000   6.114
  180        1.738   4.379   0.000   6.117
  181        1.736   4.378   0.000   6.115
  182        1.738   4.378   0.000   6.115
  183        1.737   4.368   0.000   6.105
  184        1.737   4.381   0.000   6.118
  185        1.737   4.382   0.000   6.119
  186        1.737   4.382   0.000   6.119
  187        1.737   4.370   0.000   6.107
  188        1.738   4.381   0.000   6.119
  189        1.738   4.381   0.000   6.119
  190        1.738   4.381   0.000   6.119
  191        1.739   4.387   0.000   6.126
  192        1.738   4.378   0.000   6.116
  193        1.739   4.388   0.000   6.127
  194        1.736   4.382   0.000   6.117
  195        1.737   4.370   0.000   6.107
  196        1.737   4.381   0.000   6.119
  197        1.737   4.369   0.000   6.106
  198        1.737   4.380   0.000   6.118
  199        1.738   4.381   0.000   6.119
  200        1.738   4.381   0.000   6.119
  201        1.738   4.380   0.000   6.118
  202        1.738   4.380   0.000   6.118
  203        1.738   4.380   0.000   6.118
  204        1.738   4.379   0.000   6.117
  205        1.737   4.379   0.000   6.117
  206        1.737   4.369   0.000   6.105
  207        1.737   4.370   0.000   6.106
  208        1.737   4.381   0.000   6.119
  209        1.738   4.379   0.000   6.117
  210        1.737   4.370   0.000   6.106
  211        1.737   4.368   0.000   6.105
  212        1.737   4.369   0.000   6.106
  213        1.739   4.376   0.000   6.115
  214        1.736   4.368   0.000   6.104
  215        1.739   4.380   0.000   6.118
  216        1.736   4.368   0.000   6.105
  217        1.737   4.367   0.000   6.104
  218        1.737   4.381   0.000   6.118
  219        1.738   4.380   0.000   6.118
  220        1.738   4.381   0.000   6.119
  221        1.738   4.380   0.000   6.118
  222        1.737   4.379   0.000   6.116
  223        1.738   4.381   0.000   6.119
  224        1.738   4.382   0.000   6.119
  225        1.738   4.381   0.000   6.119
  226        1.738   4.379   0.000   6.117
  227        1.737   4.380   0.000   6.117
  228        1.738   4.378   0.000   6.115
  229        1.738   4.379   0.000   6.117
  230        1.737   4.370   0.000   6.106
  231        1.738   4.377   0.000   6.115
  232        1.737   4.370   0.000   6.107
  233        1.738   4.381   0.000   6.119
  234        1.737   4.370   0.000   6.107
  235        1.737   4.370   0.000   6.107
  236        1.739   4.388   0.000   6.127
  237        1.739   4.388   0.000   6.127
  238        1.737   4.380   0.000   6.117
  239        1.738   4.379   0.000   6.118
  240        1.737   4.381   0.000   6.118
  241        1.738   4.377   0.000   6.115
  242        1.738   4.389   0.000   6.128
  243        1.739   4.388   0.000   6.127
  244        1.737   4.380   0.000   6.117
  245        1.738   4.378   0.000   6.116
  246        1.738   4.378   0.000   6.116
  247        1.738   4.387   0.000   6.125
  248        1.738   4.379   0.000   6.117
  249        1.738   4.386   0.000   6.124
  250        1.738   4.379   0.000   6.117
  251        1.738   4.380   0.000   6.118
  252        1.738   4.381   0.000   6.119
  253        1.738   4.379   0.000   6.118
  254        1.739   4.388   0.000   6.127
  255        1.738   4.379   0.000   6.117
  256        1.739   4.385   0.000   6.125
  257        1.738   4.379   0.000   6.118
--------------------------------------------------
tot        345.6281195.813 112.8221654.263
 


 magnetization (x)
 
# of ion       s       p       d       tot
------------------------------------------
    1       -0.000  -0.000   0.000  -0.000
    2        0.000  -0.000   0.000   0.000
    3       -0.000  -0.000   0.000   0.000
    4       -0.000  -0.000   0.000   0.000
    5       -0.000  -0.000   0.000   0.000
    6       -0.000  -0.000   0.000   0.000
    7       -0.000  -0.000   0.000  -0.000
    8        0.000   0.000   0.000   0.000
    9       -0.000  -0.000  -0.000  -0.000
   10       -0.000  -0.000   0.000   0.000
   11       -0.000  -0.000   0.000   0.000
   12        0.000   0.001   0.052   0.053
   13       -0.000  -0.000   0.000  -0.000
   14        0.000   0.000   0.001   0.001
   15       -0.000  -0.000  -0.000  -0.000
   16        0.000  -0.000   0.008   0.008
   17       -0.000  -0.000  -0.000  -0.000
   18       -0.000  -0.000   0.000   0.000
   19       -0.000  -0.000   0.000  -0.000
   20       -0.000  -0.000   0.000  -0.000
   21       -0.000  -0.000   0.000   0.000
   22       -0.000  -0.000   0.000   0.000
   23       -0.000  -0.000   0.000   0.000
   24       -0.000  -0.000   0.000   0.000
   25       -0.000  -0.000  -0.000  -0.000
   26        0.000   0.000   0.011   0.012
   27       -0.000  -0.000  -0.000  -0.000
   28        0.000  -0.000   0.001   0.001
   29       -0.000  -0.000   0.000   0.000
   30        0.000   0.000   0.003   0.003
   31       -0.000  -0.000   0.000   0.000
   32        0.000   0.000   0.005   0.005
   33       -0.000  -0.000  -0.000  -0.000
   34       -0.000  -0.000  -0.000  -0.000
   35       -0.000  -0.000   0.000   0.000
   36       -0.000  -0.000   0.000   0.000
   37        0.000  -0.000   0.000  -0.000
   38        0.000  -0.000   0.000   0.000
   39       -0.000  -0.000  -0.000  -0.000
   40       -0.000  -0.000  -0.002  -0.003
   41       -0.000  -0.000   0.000  -0.000
   42        0.000   0.000   0.000   0.000
   43       -0.000  -0.000  -0.000  -0.000
   44       -0.000   0.000   0.001   0.001
   45       -0.000  -0.000  -0.000  -0.000
   46        0.000   0.000   0.000   0.000
   47       -0.000  -0.000  -0.000  -0.000
   48        0.005   0.007   0.880   0.891
   49       -0.000  -0.000  -0.000  -0.000
   50       -0.000  -0.000  -0.000  -0.000
   51       -0.000  -0.000   0.000   0.000
   52       -0.000  -0.000   0.000   0.000
   53       -0.000  -0.000  -0.000  -0.000
   54       -0.000  -0.000  -0.000  -0.000
   55       -0.000  -0.000   0.000   0.000
   56        0.000  -0.000   0.000   0.000
   57       -0.000  -0.000  -0.000  -0.000
   58        0.000   0.000   0.001   0.001
   59       -0.000  -0.000  -0.000  -0.000
   60        0.000   0.000   0.000   0.000
   61       -0.000  -0.000  -0.000  -0.000
   62        0.000   0.000   0.012   0.012
   63       -0.000  -0.000  -0.000  -0.000
   64        0.000   0.000   0.014   0.014
   65       -0.000  -0.000  -0.000  -0.000
   66       -0.000  -0.000   0.000  -0.000
   67       -0.000  -0.000   0.000  -0.000
   68        0.000  -0.000   0.000  -0.000
   69       -0.000  -0.000   0.000  -0.000
   70       -0.000  -0.000   0.000  -0.000
   71       -0.000  -0.000   0.000  -0.000
   72       -0.000  -0.000   0.000  -0.000
   73       -0.000  -0.000   0.000  -0.000
   74       -0.000  -0.000   0.000  -0.000
   75       -0.000  -0.000   0.000  -0.000
   76        0.000  -0.000   0.000   0.000
   77       -0.000  -0.000   0.000  -0.000
   78       -0.001  -0.014   0.000  -0.015
   79       -0.000  -0.000   0.000  -0.000
   80       -0.000  -0.000   0.000  -0.000
   81       -0.000  -0.000   0.000  -0.000
   82       -0.000  -0.000   0.000  -0.000
   83        0.000  -0.000   0.000  -0.000
   84       -0.000  -0.001   0.000  -0.001
   85       -0.000  -0.000   0.000  -0.000
   86        0.000   0.000   0.000   0.000
   87       -0.000  -0.001   0.000  -0.001
   88       -0.000  -0.000   0.000  -0.000
   89       -0.000  -0.000   0.000  -0.000
   90       -0.000  -0.000   0.000  -0.000
   91       -0.000  -0.000   0.000  -0.000
   92       -0.000  -0.000   0.000  -0.000
   93       -0.000  -0.000   0.000  -0.000
   94       -0.000  -0.000   0.000  -0.000
   95       -0.000  -0.000   0.000  -0.000
   96        0.000  -0.000   0.000  -0.000
   97       -0.000  -0.000   0.000  -0.000
   98       -0.000  -0.001   0.000  -0.001
   99        0.000   0.000   0.000   0.000
  100       -0.000  -0.002   0.000  -0.002
  101        0.000  -0.000   0.000  -0.000
  102       -0.000  -0.000   0.000  -0.000
  103        0.000  -0.000   0.000  -0.000
  104       -0.000  -0.000   0.000  -0.000
  105        0.000   0.000   0.000   0.000
  106       -0.000  -0.001   0.000  -0.001
  107       -0.001  -0.023   0.000  -0.024
  108       -0.000  -0.000   0.000  -0.000
  109       -0.000  -0.000   0.000  -0.000
  110       -0.000  -0.000   0.000  -0.000
  111        0.000   0.000   0.000   0.000
  112       -0.000  -0.000   0.000  -0.000
  113        0.000  -0.000   0.000  -0.000
  114       -0.000  -0.000   0.000  -0.000
  115        0.000   0.000   0.000   0.000
  116       -0.000  -0.000   0.000  -0.000
  117       -0.000  -0.000   0.000  -0.000
  118       -0.000  -0.000   0.000  -0.000
  119       -0.000  -0.000   0.000  -0.000
  120       -0.000  -0.000   0.000  -0.000
  121       -0.000  -0.000   0.000  -0.000
  122       -0.000  -0.005   0.000  -0.005
  123        0.000  -0.000   0.000  -0.000
  124       -0.000  -0.000   0.000  -0.000
  125        0.000   0.000   0.000   0.000
  126        0.000  -0.000   0.000   0.000
  127       -0.000  -0.000   0.000  -0.000
  128        0.000  -0.000   0.000  -0.000
  129       -0.000  -0.000   0.000  -0.000
  130       -0.000  -0.000   0.000  -0.000
  131       -0.000  -0.000   0.000  -0.000
  132       -0.000  -0.000   0.000  -0.000
  133       -0.000  -0.000   0.000  -0.000
  134        0.000   0.000   0.000   0.000
  135       -0.000  -0.000   0.000  -0.000
  136       -0.000  -0.000   0.000  -0.000
  137       -0.000  -0.001   0.000  -0.001
  138       -0.000  -0.000   0.000  -0.000
  139       -0.000  -0.000   0.000  -0.000
  140       -0.000  -0.000   0.000  -0.000
  141       -0.000  -0.000   0.000  -0.000
  142       -0.000  -0.000   0.000  -0.000
  143       -0.000  -0.000   0.000  -0.000
  144       -0.000  -0.000   0.000  -0.000
  145       -0.000  -0.000   0.000  -0.000
  146       -0.000  -0.000   0.000  -0.000
  147       -0.000  -0.000   0.000  -0.000
  148       -0.000  -0.000   0.000  -0.000
  149       -0.000  -0.000   0.000  -0.000
  150       -0.000  -0.000   0.000  -0.000
  151       -0.000  -0.000   0.000  -0.000
  152       -0.000  -0.000   0.000  -0.000
  153       -0.000  -0.000   0.000  -0.000
  154       -0.000  -0.000   0.000  -0.000
  155        0.000  -0.000   0.000  -0.000
  156       -0.000  -0.000   0.000  -0.000
  157       -0.000  -0.000   0.000  -0.000
  158       -0.000  -0.000   0.000  -0.000
  159       -0.000  -0.000   0.000  -0.000
  160       -0.000  -0.006   0.000  -0.006
  161       -0.000  -0.000   0.000  -0.000
  162       -0.000  -0.000   0.000  -0.000
  163       -0.000  -0.000   0.000  -0.000
  164        0.000  -0.000   0.000  -0.000
  165       -0.000  -0.000   0.000  -0.000
  166       -0.000  -0.000   0.000  -0.000
  167       -0.000  -0.000   0.000  -0.000
  168       -0.000  -0.000   0.000  -0.000
  169       -0.000  -0.000   0.000  -0.000
  170       -0.000  -0.000   0.000  -0.000
  171        0.000  -0.000   0.000  -0.000
  172        0.000   0.000   0.000   0.000
  173       -0.000  -0.000   0.000  -0.000
  174       -0.000  -0.000   0.000  -0.000
  175       -0.000   0.000   0.000   0.000
  176       -0.000  -0.000   0.000  -0.000
  177        0.000   0.000   0.000   0.000
  178        0.000  -0.000   0.000  -0.000
  179       -0.000  -0.000   0.000  -0.000
  180        0.000  -0.000   0.000  -0.000
  181       -0.000   0.001   0.000   0.001
  182        0.000  -0.000   0.000  -0.000
  183       -0.000  -0.000   0.000  -0.000
  184       -0.000  -0.000   0.000  -0.000
  185       -0.000  -0.000   0.000  -0.000
  186       -0.000  -0.000   0.000  -0.000
  187       -0.000  -0.000   0.000  -0.000
  188       -0.000   0.000   0.000  -0.000
  189        0.000  -0.000   0.000  -0.000
  190       -0.000  -0.000   0.000  -0.000
  191        0.000   0.000   0.000   0.000
  192       -0.000  -0.000   0.000  -0.000
  193       -0.000  -0.000   0.000  -0.000
  194       -0.000  -0.000   0.000  -0.000
  195        0.000   0.000   0.000   0.000
  196       -0.000  -0.000   0.000  -0.000
  197       -0.000  -0.000   0.000  -0.000
  198        0.000   0.000   0.000   0.000
  199       -0.000  -0.000   0.000  -0.000
  200       -0.000  -0.000   0.000  -0.000
  201       -0.000  -0.000   0.000  -0.000
  202       -0.000  -0.000   0.000  -0.000
  203       -0.000  -0.000   0.000  -0.000
  204       -0.000  -0.000   0.000  -0.000
  205        0.000  -0.000   0.000  -0.000
  206       -0.000  -0.000   0.000  -0.000
  207       -0.000  -0.000   0.000  -0.000
  208       -0.000  -0.000   0.000  -0.000
  209        0.000  -0.001   0.000  -0.001
  210       -0.000  -0.000   0.000  -0.000
  211       -0.000  -0.000   0.000  -0.000
  212       -0.000  -0.000   0.000  -0.000
  213       -0.000  -0.000   0.000  -0.000
  214       -0.000  -0.000   0.000  -0.000
  215        0.000  -0.000   0.000  -0.000
  216        0.000  -0.000   0.000  -0.000
  217        0.000  -0.000   0.000  -0.000
  218       -0.000  -0.000   0.000  -0.000
  219       -0.000  -0.000   0.000  -0.000
  220       -0.000   0.000   0.000   0.000
  221       -0.000  -0.000   0.000  -0.000
  222        0.000  -0.000   0.000  -0.000
  223       -0.000  -0.000   0.000  -0.000
  224       -0.000  -0.000   0.000  -0.000
  225       -0.000  -0.000   0.000  -0.000
  226        0.000  -0.000   0.000  -0.000
  227        0.000   0.000   0.000   0.000
  228        0.000   0.000   0.000   0.000
  229        0.000  -0.000   0.000  -0.000
  230       -0.000  -0.000   0.000  -0.000
  231       -0.000   0.000   0.000   0.000
  232        0.000  -0.000   0.000  -0.000
  233       -0.000  -0.000   0.000  -0.000
  234        0.000   0.000   0.000   0.000
  235       -0.000  -0.000   0.000  -0.000
  236        0.000  -0.000   0.000  -0.000
  237       -0.000  -0.000   0.000  -0.000
  238       -0.000  -0.000   0.000  -0.000
  239        0.000  -0.000   0.000  -0.000
  240        0.000   0.000   0.000   0.000
  241       -0.000  -0.000   0.000  -0.000
  242        0.000  -0.000   0.000  -0.000
  243       -0.000  -0.000   0.000  -0.001
  244        0.000  -0.000   0.000  -0.000
  245       -0.000  -0.000   0.000  -0.000
  246       -0.000  -0.000   0.000  -0.000
  247        0.000  -0.000   0.000  -0.000
  248       -0.000  -0.000   0.000  -0.000
  249       -0.000  -0.000   0.000  -0.000
  250       -0.000  -0.000   0.000  -0.000
  251        0.000   0.000   0.000   0.000
  252        0.000   0.000   0.000   0.000
  253        0.000  -0.000   0.000  -0.000
  254       -0.000  -0.000   0.000  -0.001
  255        0.000  -0.000   0.000  -0.000
  256       -0.000  -0.000   0.000  -0.000
  257       -0.000  -0.000   0.000  -0.000
--------------------------------------------------
tot          0.001  -0.051   0.987   0.937
 

 total amount of memory used by VASP MPI-rank0   291506. kBytes
=======================================================================

   base      :      30000. kBytes
   nonlr-proj:      49471. kBytes
   fftplans  :      27976. kBytes
   grid      :      34041. kBytes
   one-center:       1026. kBytes
   wavefun   :     148992. kBytes
 
  
  
 General timing and accounting informations for this job:
 ========================================================
  
                  Total CPU time used (sec):      783.909
                            User time (sec):      457.821
                          System time (sec):      326.088
                         Elapsed time (sec):      814.983
  
                   Maximum memory used (kb):      621828.
                   Average memory used (kb):           0.
  
                          Minor page faults:        76564
                          Major page faults:            5
                 Voluntary context switches:        15967
