LTO                                     
           1
     7.912671    0.000000    0.000000
     0.000000    7.854025   -0.000049
     0.000000   -0.000059    7.466829
   Ti   O    F 
   8   8  16
Direct configuration=     1
   0.99999999  0.00003057  0.98927250
   0.00000003  0.00022711  0.50974081
   0.99999999  0.50005012  0.00027546
   0.99999999  0.49986924  0.49967877
   0.49999999  0.00103938  0.00037190
   0.50000003  0.98442449  0.49977486
   0.49999999  0.49957018  0.00003792
   0.49999990  0.51242957  0.50003460
   0.50000001  0.75146052  0.50011525
   0.99999997  0.99990309  0.75031713
   0.99999998  0.50016954  0.24960243
   0.99999999  0.50016396  0.75055984
   0.49999998  0.00222691  0.24597114
   0.50000004  0.00220750  0.75423447
   0.49999998  0.49854737  0.24667834
   0.49999997  0.49853714  0.75336488
   0.24122029  0.00002080  0.00468645
   0.23989739  0.00099022  0.49520038
   0.24575673  0.50005813  0.99993896
   0.24454947  0.49883389  0.50011152
   0.75877970  0.00002076  0.00468649
   0.76010266  0.00099025  0.49520026
   0.75424325  0.50005816  0.99993896
   0.75545050  0.49883387  0.50011156
   0.99999997  0.24456506  0.00454758
   0.00000007  0.24473617  0.49571848
   0.00000001  0.75550609  0.00453578
   0.00000002  0.75542944  0.49574825
   0.50000004  0.24936601  0.99996346
   0.50000000  0.24854545  0.50009461
   0.50000001  0.75130129  0.99995780
   0.00000005  0.99988776  0.24952919
LTO                                     
           1
     7.914556    0.000000    0.000000
     0.000000    7.855692   -0.000039
     0.000000   -0.000051    7.465990
   Ti   O    F 
   8   8  16
Direct configuration=     2
   0.99999999  0.00003924  0.98926496
   0.00000002  0.00023494  0.50971061
   0.99999999  0.50005228  0.00028353
   0.99999995  0.49986800  0.49965324
   0.50000000  0.00106083  0.00039328
   0.50000003  0.98441260  0.49976853
   0.50000000  0.49959146  0.00004033
   0.49999997  0.51237976  0.50003477
   0.50000000  0.75145219  0.50012492
   0.99999997  0.99989953  0.75034192
   0.99999998  0.50018102  0.24959885
   0.99999999  0.50017530  0.75056761
   0.49999998  0.00222913  0.24596933
   0.50000004  0.00220704  0.75424295
   0.49999998  0.49854247  0.24665782
   0.49999996  0.49853051  0.75339635
   0.24121179  0.00002874  0.00473184
   0.23989697  0.00099059  0.49513536
   0.24575204  0.50006961  0.99994214
   0.24454296  0.49880647  0.50012330
   0.75878820  0.00002871  0.00473188
   0.76010308  0.00099062  0.49513524
   0.75424794  0.50006963  0.99994214
   0.75545701  0.49880645  0.50012334
   0.99999997  0.24456169  0.00459128
   0.00000007  0.24473496  0.49566787
   0.00000000  0.75551666  0.00458255
   0.00000002  0.75542529  0.49569618
   0.50000004  0.24938347  0.99996809
   0.49999999  0.24853501  0.50010623
   0.50000001  0.75131063  0.99996112
   0.00000005  0.99988514  0.24951244
LTO                                     
           1
     7.914156    0.000000    0.000000
     0.000000    7.855129   -0.000037
     0.000000   -0.000049    7.466115
   Ti   O    F 
   8   8  16
Direct configuration=     3
   0.99999999  0.00003866  0.98929438
   0.00000003  0.00023137  0.50969603
   0.99999999  0.50005856  0.00026570
   0.99999998  0.49987083  0.49965753
   0.49999999  0.00107264  0.00038733
   0.50000003  0.98436467  0.49978006
   0.49999999  0.49960392  0.00003924
   0.49999996  0.51238910  0.50003754
   0.50000000  0.75143888  0.50012941
   0.99999997  0.99989945  0.75029593
   0.99999998  0.50018658  0.24960804
   0.99999999  0.50018119  0.75056257
   0.49999998  0.00223273  0.24598371
   0.50000004  0.00220884  0.75423686
   0.49999998  0.49853869  0.24668594
   0.49999997  0.49852512  0.75337690
   0.24119947  0.00003455  0.00475790
   0.23987422  0.00098976  0.49509803
   0.24574290  0.50007717  0.99994550
   0.24453700  0.49878901  0.50012966
   0.75880052  0.00003451  0.00475794
   0.76012583  0.00098979  0.49509791
   0.75425708  0.50007719  0.99994549
   0.75546296  0.49878899  0.50012970
   0.99999997  0.24455808  0.00461701
   0.00000007  0.24472246  0.49563981
   0.00000000  0.75552759  0.00460998
   0.00000002  0.75543942  0.49566776
   0.50000004  0.24938931  0.99997204
   0.49999999  0.24853314  0.50011250
   0.50000001  0.75132332  0.99996414
   0.00000005  0.99988446  0.24951745
