 vasp.5.4.4.18Apr17-6-g9f103f2a35 (build Jul 16 2019 12:12:28) complex          
  
 executed on             LinuxIFC date 2020.02.03  20:31:01
 running on   96 total cores
 distrk:  each k-point on   96 cores,    1 groups
 distr:  one band on NCORES_PER_BAND=   8 cores,   12 groups


--------------------------------------------------------------------------------------------------------


 INCAR:
 POTCAR:    PAW_PBE Li_sv 10Sep2004               
 POTCAR:    PAW_PBE Ti_pv 07Sep2000               
 POTCAR:    PAW_PBE O 08Apr2002                   
 POTCAR:    PAW_PBE F 08Apr2002                   
 POTCAR:    PAW_PBE Li_sv 10Sep2004               
   VRHFIN =Li: 1s2s2p                                                           
   LEXCH  = PE                                                                  
   EATOM  =   202.7858 eV,   14.9043 Ry                                         
                                                                                
   TITEL  = PAW_PBE Li_sv 10Sep2004                                             
   LULTRA =        F    use ultrasoft PP ?                                      
   IUNSCR =        0    unscreen: 0-lin 1-nonlin 2-no                           
   RPACOR =    0.000    partial core radius                                     
   POMASS =    7.010; ZVAL   =    3.000    mass and valenz                      
   RCORE  =    1.700    outmost cutoff radius                                   
   RWIGS  =    2.050; RWIGS  =    1.085    wigner-seitz radius (au A)           
   ENMAX  =  499.034; ENMIN  =  374.276 eV                                      
   ICORE  =        2    local potential                                         
   LCOR   =        T    correct aug charges                                     
   LPAW   =        T    paw PP                                                  
   EAUG   =  628.945                                                            
   RMAX   =    1.732    core radius for proj-oper                               
   RAUG   =    1.300    factor for augmentation sphere                          
   RDEP   =    1.728    radius for radial grids                                 
   RDEPT  =    1.329    core radius for aug-charge                              
                                                                                
   Atomic configuration                                                         
    4 entries                                                                   
     n  l   j            E        occ.                                          
     1  0  0.50       -51.8549   2.0000                                         
     2  0  0.50        -2.8742   1.0000                                         
     2  1  0.50        -1.3606   0.0000                                         
     3  2  1.50        -1.3606   0.0000                                         
   Description                                                                  
     l       E           TYP  RCUT    TYP  RCUT                                 
     0    -51.8548813     23  1.400                                             
     0     -2.8742052     23  1.700                                             
     1     -1.3605826     23  1.400                                             
     2     -1.3605826     23  1.400                                             
  local pseudopotential read in
  atomic valenz-charges read in
  non local Contribution for L=           0  read in
    real space projection operators read in
  non local Contribution for L=           0  read in
    real space projection operators read in
  non local Contribution for L=           1  read in
    real space projection operators read in
    PAW grid and wavefunctions read in
 
   number of l-projection  operators is LMAX  =           3
   number of lm-projection operators is LMMAX =           5
 
 POTCAR:    PAW_PBE Ti_pv 07Sep2000               
   VRHFIN =Ti: d3 s1                                                            
   LEXCH  = PE                                                                  
   EATOM  =  1042.5995 eV,   76.6289 Ry                                         
                                                                                
   TITEL  = PAW_PBE Ti_pv 07Sep2000                                             
   LULTRA =        F    use ultrasoft PP ?                                      
   IUNSCR =        1    unscreen: 0-lin 1-nonlin 2-no                           
   RPACOR =    2.200    partial core radius                                     
   POMASS =   47.880; ZVAL   =   10.000    mass and valenz                      
   RCORE  =    2.500    outmost cutoff radius                                   
   RWIGS  =    2.500; RWIGS  =    1.323    wigner-seitz radius (au A)           
   ENMAX  =  222.335; ENMIN  =  166.751 eV                                      
   RCLOC  =    1.701    cutoff for local pot                                    
   LCOR   =        T    correct aug charges                                     
   LPAW   =        T    paw PP                                                  
   EAUG   =  482.848                                                            
   DEXC   =    0.000                                                            
   RMAX   =    2.564    core radius for proj-oper                               
   RAUG   =    1.300    factor for augmentation sphere                          
   RDEP   =    2.538    radius for radial grids                                 
   RDEPT  =    1.952    core radius for aug-charge                              
                                                                                
   Atomic configuration                                                         
    8 entries                                                                   
     n  l   j            E        occ.                                          
     1  0  0.50     -4865.3608   2.0000                                         
     2  0  0.50      -533.1368   2.0000                                         
     2  1  1.50      -440.5031   6.0000                                         
     3  0  0.50       -59.3186   2.0000                                         
     3  1  1.50       -35.7012   6.0000                                         
     3  2  2.50        -1.9157   3.0000                                         
     4  0  0.50        -3.7291   1.0000                                         
     4  3  2.50        -1.3606   0.0000                                         
   Description                                                                  
     l       E           TYP  RCUT    TYP  RCUT                                 
     1    -35.7012140     23  2.300                                             
     1     -1.3605826     23  2.300                                             
     2     -1.9156996     23  2.500                                             
     2     -0.4063033     23  2.500                                             
     0     -3.7290856     23  2.500                                             
     0     20.4087390     23  2.500                                             
  local pseudopotential read in
  partial core-charges read in
  partial kinetic energy density read in
  atomic valenz-charges read in
  non local Contribution for L=           1  read in
    real space projection operators read in
  non local Contribution for L=           1  read in
    real space projection operators read in
  non local Contribution for L=           2  read in
    real space projection operators read in
  non local Contribution for L=           2  read in
    real space projection operators read in
  non local Contribution for L=           0  read in
    real space projection operators read in
  non local Contribution for L=           0  read in
    real space projection operators read in
    PAW grid and wavefunctions read in
 
   number of l-projection  operators is LMAX  =           6
   number of lm-projection operators is LMMAX =          18
 
 POTCAR:    PAW_PBE O 08Apr2002                   
   VRHFIN =O: s2p4                                                              
   LEXCH  = PE                                                                  
   EATOM  =   432.3788 eV,   31.7789 Ry                                         
                                                                                
   TITEL  = PAW_PBE O 08Apr2002                                                 
   LULTRA =        F    use ultrasoft PP ?                                      
   IUNSCR =        1    unscreen: 0-lin 1-nonlin 2-no                           
   RPACOR =    1.200    partial core radius                                     
   POMASS =   16.000; ZVAL   =    6.000    mass and valenz                      
   RCORE  =    1.520    outmost cutoff radius                                   
   RWIGS  =    1.550; RWIGS  =    0.820    wigner-seitz radius (au A)           
   ENMAX  =  400.000; ENMIN  =  300.000 eV                                      
   ICORE  =        2    local potential                                         
   LCOR   =        T    correct aug charges                                     
   LPAW   =        T    paw PP                                                  
   EAUG   =  605.392                                                            
   DEXC   =    0.000                                                            
   RMAX   =    1.553    core radius for proj-oper                               
   RAUG   =    1.300    factor for augmentation sphere                          
   RDEP   =    1.550    radius for radial grids                                 
   RDEPT  =    1.329    core radius for aug-charge                              
                                                                                
   Atomic configuration                                                         
    4 entries                                                                   
     n  l   j            E        occ.                                          
     1  0  0.50      -514.6923   2.0000                                         
     2  0  0.50       -23.9615   2.0000                                         
     2  1  0.50        -9.0305   4.0000                                         
     3  2  1.50        -9.5241   0.0000                                         
   Description                                                                  
     l       E           TYP  RCUT    TYP  RCUT                                 
     0    -23.9615318     23  1.200                                             
     0     -9.5240782     23  1.200                                             
     1     -9.0304911     23  1.520                                             
     1      8.1634956     23  1.520                                             
     2     -9.5240782      7  1.500                                             
  local pseudopotential read in
  partial core-charges read in
  partial kinetic energy density read in
  kinetic energy density of atom read in
  atomic valenz-charges read in
  non local Contribution for L=           0  read in
    real space projection operators read in
  non local Contribution for L=           0  read in
    real space projection operators read in
  non local Contribution for L=           1  read in
    real space projection operators read in
  non local Contribution for L=           1  read in
    real space projection operators read in
    PAW grid and wavefunctions read in
 
   number of l-projection  operators is LMAX  =           4
   number of lm-projection operators is LMMAX =           8
 
 POTCAR:    PAW_PBE F 08Apr2002                   
   VRHFIN =F: s2p5                                                              
   LEXCH  = PE                                                                  
   EATOM  =   659.6475 eV,   48.4827 Ry                                         
                                                                                
   TITEL  = PAW_PBE F 08Apr2002                                                 
   LULTRA =        F    use ultrasoft PP ?                                      
   IUNSCR =        1    unscreen: 0-lin 1-nonlin 2-no                           
   RPACOR =    1.200    partial core radius                                     
   POMASS =   18.998; ZVAL   =    7.000    mass and valenz                      
   RCORE  =    1.520    outmost cutoff radius                                   
   RWIGS  =    1.500; RWIGS  =    0.794    wigner-seitz radius (au A)           
   ENMAX  =  400.000; ENMIN  =  300.000 eV                                      
   ICORE  =        2    local potential                                         
   LCOR   =        T    correct aug charges                                     
   LPAW   =        T    paw PP                                                  
   EAUG   =  613.614                                                            
   RMAX   =    1.555    core radius for proj-oper                               
   RAUG   =    1.300    factor for augmentation sphere                          
   RDEP   =    1.539    radius for radial grids                                 
   RDEPT  =    1.299    core radius for aug-charge                              
                                                                                
   Atomic configuration                                                         
    4 entries                                                                   
     n  l   j            E        occ.                                          
     1  0  0.50      -663.3661   2.0000                                         
     2  0  0.50       -29.8995   2.0000                                         
     2  1  0.50       -11.1114   5.0000                                         
     3  2  1.50       -10.8847   0.0000                                         
   Description                                                                  
     l       E           TYP  RCUT    TYP  RCUT                                 
     0    -29.8995018     23  1.200                                             
     0     -9.5240782     23  1.200                                             
     1    -11.1113914     23  1.520                                             
     1      1.3605826     23  1.520                                             
     2    -10.8846608      7  1.500                                             
  local pseudopotential read in
  partial core-charges read in
  partial kinetic energy density read in
  atomic valenz-charges read in
  non local Contribution for L=           0  read in
    real space projection operators read in
  non local Contribution for L=           0  read in
    real space projection operators read in
  non local Contribution for L=           1  read in
    real space projection operators read in
  non local Contribution for L=           1  read in
    real space projection operators read in
    PAW grid and wavefunctions read in
 
   number of l-projection  operators is LMAX  =           4
   number of lm-projection operators is LMMAX =           8
 
 Optimization of the real space projectors (new method)

 maximal supplied QI-value         = 22.11
 optimisation between [QCUT,QGAM] = [ 11.28, 22.77] = [ 35.61,145.23] Ry 
 Optimized for a Real-space Cutoff    1.31 Angstroem

   l    n(q)    QCUT    max X(q) W(low)/X(q) W(high)/X(q)  e(spline) 
   0      9    11.276    10.506    0.19E-04    0.17E-04    0.32E-07
   0      9    11.276     8.367    0.38E-04    0.40E-04    0.65E-07
   1      8    11.276     8.983    0.55E-04    0.98E-04    0.20E-06
 Optimization of the real space projectors (new method)

 maximal supplied QI-value         = 15.12
 optimisation between [QCUT,QGAM] = [ 11.34, 22.83] = [ 36.00,145.93] Ry 
 Optimized for a Real-space Cutoff    1.56 Angstroem

   l    n(q)    QCUT    max X(q) W(low)/X(q) W(high)/X(q)  e(spline) 
   1     10    11.338     4.216    0.27E-04    0.12E-04    0.66E-07
   1     10    11.338     5.422    0.81E-04    0.24E-04    0.19E-06
   2     10    11.338    72.084    0.64E-04    0.21E-03    0.51E-06
   2     10    11.338    65.965    0.63E-04    0.21E-03    0.50E-06
   0     11    11.338    41.531    0.33E-04    0.54E-04    0.13E-06
   0     11    11.338    16.290    0.26E-04    0.41E-04    0.11E-06
 Optimization of the real space projectors (new method)

 maximal supplied QI-value         = 24.76
 optimisation between [QCUT,QGAM] = [ 11.39, 22.77] = [ 36.31,145.25] Ry 
 Optimized for a Real-space Cutoff    1.20 Angstroem

   l    n(q)    QCUT    max X(q) W(low)/X(q) W(high)/X(q)  e(spline) 
   0      8    11.387    20.381    0.89E-04    0.31E-03    0.27E-06
   0      8    11.387    15.268    0.93E-04    0.32E-03    0.29E-06
   1      8    11.387     5.964    0.53E-04    0.28E-03    0.29E-06
   1      8    11.387     5.382    0.37E-04    0.22E-03    0.26E-06
 Optimization of the real space projectors (new method)

 maximal supplied QI-value         = 24.76
 optimisation between [QCUT,QGAM] = [ 11.39, 22.77] = [ 36.31,145.25] Ry 
 Optimized for a Real-space Cutoff    1.20 Angstroem

   l    n(q)    QCUT    max X(q) W(low)/X(q) W(high)/X(q)  e(spline) 
   0      8    11.387    14.049    0.69E-04    0.23E-03    0.18E-06
   0      8    11.387     8.945    0.88E-04    0.30E-03    0.26E-06
   1      8    11.387     7.086    0.62E-04    0.27E-03    0.27E-06
   1      8    11.387     6.747    0.46E-04    0.23E-03    0.25E-06

 ----------------------------------------------------------------------------- 
|                                                                             |
|  ADVICE TO THIS USER RUNNING 'VASP/VAMP'   (HEAR YOUR MASTER'S VOICE ...):  |
|                                                                             |
|      You enforced a specific xc-type in the INCAR file,                     |
|      a different type was found on the POTCAR file                          |
|          I HOPE YOU KNOW, WHAT YOU ARE  DOING                               |
|                                                                             |
 ----------------------------------------------------------------------------- 

  PAW_PBE Li_sv 10Sep2004               :
 energy of atom  1       EATOM= -202.7858
 kinetic energy error for atom=    0.0143 (will be added to EATOM!!)
  PAW_PBE Ti_pv 07Sep2000               :
 energy of atom  2       EATOM=-1042.5995
 kinetic energy error for atom=    0.0024 (will be added to EATOM!!)
  PAW_PBE O 08Apr2002                   :
 energy of atom  3       EATOM= -432.3788
 kinetic energy error for atom=    0.0224 (will be added to EATOM!!)
  PAW_PBE F 08Apr2002                   :
 energy of atom  4       EATOM= -659.6475
 kinetic energy error for atom=    0.0354 (will be added to EATOM!!)
 
 
 POSCAR: config 33                               
  positions in direct lattice
  velocities in cartesian coordinates
 exchange correlation table for  LEXCH =       14
   RHO(1)=    0.500       N(1)  =     2000
   RHO(2)=  100.500       N(2)  =     4000

 VTST: version 3.2, (02/03/18)

 CHAIN: initializing optimizer
 
 OPT: Using VASP QUASI-newton optimizer
 CHAIN: Read ICHAIN            0
 
 POSCAR: config 33                               
  positions in direct lattice
  velocities in cartesian coordinates
 


--------------------------------------------------------------------------------------------------------


 ion  position               nearest neighbor table
   1  0.631  0.137  0.131- 143 2.07  84 2.09
   2  0.996  0.994  0.994- 118 1.86  68 1.88 103 1.91 171 2.02 212 2.04 130 2.05
   3  0.999  0.992  0.493- 119 1.81  67 1.82 172 1.96 193 1.97 131 2.01 213 2.08
   4  0.006  0.495  0.998-  89 1.84 117 1.86 138 1.93 132 1.98 214 2.02 194 2.04
   5  0.994  0.504  0.507-  66 1.83 104 1.84 215 1.93 223 2.01 173 2.02 137 2.03
   6  0.494  0.992  0.999- 101 1.82 121 1.84 140 1.96 133 1.98 216 2.03 174 2.08
   7  0.502  0.010  0.499- 112 1.77 191 1.92 134 1.93 139 1.94 175 1.94 225 2.04
   8  0.505  0.494  0.997-  70 1.88  90 1.88 120 1.89 192 2.03 135 2.04 217 2.07
   9  0.492  0.500  0.496- 102 1.81  69 1.86 224 1.99 218 2.00 136 2.01 176 2.07
  10  0.007  0.003  0.255-  91 1.83  67 1.86 219 1.95 227 1.97 130 2.00 197 2.08
  11  0.003  0.007  0.756-  68 1.80 113 1.84 177 1.95 198 1.99 228 2.04 131 2.07
  12  0.993  0.492  0.251- 107 1.83 122 1.86 137 1.93 132 1.97 220 2.02 178 2.03
  13  0.993  0.500  0.742- 108 1.82  66 1.83 226 1.93 221 1.97 138 2.02 179 2.05
  14  0.504  0.012  0.251- 114 1.76  92 1.91 133 1.96 139 1.99 195 2.01 231 2.10
  15  0.493  0.006  0.753- 105 1.81 115 1.84 140 1.95 134 2.01 232 2.01 180 2.04
  16  0.493  0.497  0.258-  69 1.83 106 1.85 229 1.96 222 2.01 135 2.03 181 2.06
  17  0.501  0.504  0.760-  70 1.81 116 1.88 182 1.95 196 1.97 230 2.04 136 2.08
  18  0.997  0.257  0.002- 117 1.82 110 1.88 141 1.96 146 1.97 183 2.01 212 2.02
  19  0.998  0.248  0.491-  74 1.78 213 1.92 184 1.94 202 1.94 223 1.95 142 2.02
  20  0.999  0.757  0.006- 118 1.81  71 1.85 203 1.96 185 1.98 148 2.04 214 2.06
  21  0.997  0.757  0.506- 119 1.83  72 1.83 204 1.95 186 1.97 147 2.02 215 2.03
  22  0.495  0.258  0.002- 120 1.80 109 1.84 150 1.96 143 2.00 187 2.06 216 2.09
  23  0.509  0.247  0.498-  93 1.81 149 1.90 112 1.91 144 1.94 224 1.98 199 2.02
  24  0.508  0.756  0.999-  94 1.83 121 1.85 152 1.94 145 1.99 217 2.02 200 2.03
  25  0.507  0.754  0.509-  73 1.79  95 1.84 218 1.97 225 1.97 201 2.02 151 2.07
  26  0.998  0.258  0.255- 122 1.80  74 1.89 209 1.94 188 1.97 141 1.99 219 2.04
  27  0.007  0.243  0.748- 113 1.81  96 1.83 142 1.97 146 1.98 226 2.05 210 2.05
  28  0.007  0.747  0.243-  71 1.82  97 1.84 220 1.95 227 1.98 147 2.05 211 2.07
  29  0.993  0.750  0.743- 111 1.83  72 1.84 228 1.93 221 1.98 189 2.02 148 2.02
  30  0.503  0.245  0.252- 114 1.93  98 1.99 229 2.02 149 2.02 205 2.05 143 2.07
  31  0.507  0.244  0.752-  99 1.84 115 1.85 150 1.94 144 1.98 206 2.02 230 2.03
  32  0.507  0.752  0.252- 100 1.80 151 1.93 231 1.93 145 1.95 222 1.95 207 2.01
  33  0.502  0.742  0.744- 116 1.81  73 1.84 190 1.94 208 1.97 152 2.03 232 2.07
  34  0.257  0.997  0.005-  75 1.84 101 1.87 246 1.93 233 1.96 171 2.02 157 2.05
  35  0.252  0.993  0.506- 128 1.82  76 1.84 172 1.96 191 2.00 234 2.03 156 2.03
  36  0.244  0.508  0.998- 123 1.82  89 1.84 159 1.93 153 1.97 192 2.02 245 2.04
  37  0.255  0.494  0.507-  77 1.86 102 1.88 127 1.88 173 2.05 158 2.05 235 2.05
  38  0.758  0.998  0.992- 103 1.78  81 1.86 249 1.96 236 1.96 154 2.07 174 2.10
  39  0.748  0.008  0.493- 124 1.83  80 1.84 193 1.94 175 1.99 155 2.00 250 2.04
  40  0.742  0.502  0.005-  90 1.80  78 1.86 237 1.96 247 1.98 161 2.03 194 2.05
  41  0.756  0.500  0.506-  79 1.84 104 1.85 248 1.96 238 1.99 176 2.02 160 2.03
  42  0.244  0.002  0.243-  75 1.84  91 1.85 239 1.94 252 1.97 156 2.04 195 2.07
  43  0.259  0.998  0.744- 105 1.84  76 1.84 253 1.93 240 1.97 157 2.03 177 2.03
  44  0.254  0.490  0.252- 129 1.83 106 1.84 158 1.93 153 1.97 241 2.05 178 2.05
  45  0.247  0.506  0.741-  77 1.79 125 1.83 179 1.95 196 1.98 251 2.03 159 2.06
  46  0.743  0.002  0.256-  80 1.85  92 1.86 256 1.96 242 1.96 197 2.01 154 2.05
  47  0.747  0.006  0.757-  81 1.83 126 1.83 180 1.95 198 1.96 257 2.04 155 2.07
  48  0.755  0.499  0.243-  78 1.81 107 1.86 243 1.97 254 1.98 181 2.02 160 2.04
  49  0.757  0.500  0.743- 108 1.83  79 1.83 255 1.94 244 1.98 182 2.03 161 2.04
  50  0.257  0.251  0.007- 109 1.84  82 1.85 245 1.94 233 1.97 168 2.03 183 2.06
  51  0.253  0.257  0.506- 127 1.81  83 1.85 199 1.97 184 2.02 167 2.04 234 2.06
  52  0.253  0.742  0.993- 123 1.82  86 1.83 200 1.95 185 1.97 162 2.03 246 2.04
  53  0.252  0.755  0.492-  85 1.83 128 1.86 201 1.96 186 1.98 235 2.01 163 2.04
  54  0.759  0.249  0.009- 110 1.80  84 1.85 247 1.95 236 1.95 170 2.05 187 2.07
  55  0.742  0.244  0.497- 124 1.83  93 1.84 169 1.94 164 1.96 248 2.02 202 2.05
  56  0.742  0.750  0.993-  94 1.82  88 1.83 237 1.95 249 1.97 203 2.02 165 2.05
  57  0.742  0.755  0.494-  95 1.82  87 1.86 250 1.95 238 1.97 166 2.02 204 2.04
  58  0.248  0.257  0.244- 129 1.83  82 1.84 205 1.93 188 2.00 167 2.04 239 2.05
  59  0.244  0.252  0.744-  83 1.84  96 1.85 251 1.94 240 1.98 168 2.04 206 2.05
  60  0.244  0.746  0.256-  97 1.83  85 1.84 241 1.94 252 1.98 162 2.03 207 2.07
  61  0.248  0.742  0.756- 125 1.81  86 1.84 189 1.94 208 1.98 163 2.04 253 2.04
  62  0.741  0.247  0.245-  98 1.75  84 1.89 254 1.95 242 1.97 169 2.06 209 2.09
  63  0.744  0.243  0.754- 126 1.82  99 1.84 170 1.94 164 2.00 210 2.02 255 2.04
  64  0.745  0.751  0.257-  87 1.82 100 1.90 243 1.95 256 1.97 211 1.98 165 2.03
  65  0.758  0.752  0.757- 111 1.82  88 1.84 257 1.93 244 1.97 190 2.03 166 2.06
  66  0.010  0.503  0.625-  13 1.83   5 1.83
  67  0.002  0.004  0.375-   3 1.82  10 1.86
  68  0.006  0.000  0.872-  11 1.80   2 1.88
  69  0.498  0.488  0.376-  16 1.83   9 1.86
  70  0.493  0.491  0.876-  17 1.81   8 1.88
  71  0.001  0.744  0.125-  28 1.82  20 1.85
  72  0.003  0.745  0.624-  21 1.83  29 1.84
  73  0.504  0.745  0.624-  25 1.79  33 1.84
  74  0.987  0.248  0.376-  19 1.78  26 1.89
  75  0.260  0.000  0.125-  42 1.84  34 1.84
  76  0.263  0.003  0.625-  43 1.84  35 1.84
  77  0.238  0.494  0.626-  45 1.79  37 1.86
  78  0.749  0.507  0.126-  48 1.81  40 1.86
  79  0.744  0.504  0.625-  49 1.83  41 1.84
  80  0.739  0.990  0.376-  39 1.84  46 1.85
  81  0.738  0.988  0.873-  47 1.83  38 1.86
  82  0.237  0.249  0.125-  58 1.84  50 1.85
  83  0.245  0.251  0.625-  59 1.84  51 1.85
  84  0.733  0.227  0.125-  54 1.85  62 1.89   1 2.09
  85  0.256  0.745  0.374-  53 1.83  60 1.84
  86  0.254  0.751  0.875-  52 1.83  61 1.84
  87  0.754  0.762  0.374-  64 1.82  57 1.86
  88  0.751  0.762  0.875-  56 1.83  65 1.84
  89  0.125  0.508  0.993-   4 1.84  36 1.84
  90  0.626  0.511  0.997-  40 1.80   8 1.88
  91  0.125  0.010  0.245-  10 1.83  42 1.85
  92  0.626  0.023  0.237-  46 1.86  14 1.91
  93  0.625  0.264  0.488-  23 1.81  55 1.84
  94  0.625  0.736  0.999-  56 1.82  24 1.83
  95  0.625  0.768  0.495-  57 1.82  25 1.84
  96  0.125  0.256  0.757-  27 1.83  59 1.85
  97  0.125  0.741  0.253-  60 1.83  28 1.84
  98  0.630  0.228  0.264-  62 1.75  30 1.99
  99  0.626  0.256  0.758-  63 1.84  31 1.84
 100  0.623  0.743  0.253-  32 1.80  64 1.90
 101  0.376  0.992  0.988-   6 1.82  34 1.87
 102  0.376  0.510  0.506-   9 1.81  37 1.88
 103  0.873  0.992  0.994-  38 1.78   2 1.91
 104  0.875  0.510  0.501-   5 1.84  41 1.85
 105  0.377  0.000  0.763-  15 1.81  43 1.84
 106  0.374  0.487  0.248-  44 1.84  16 1.85
 107  0.875  0.488  0.250-  12 1.83  48 1.86
 108  0.875  0.511  0.745-  13 1.82  49 1.83
 109  0.376  0.252  0.014-  50 1.84  22 1.84
 110  0.875  0.254  0.014-  54 1.80  18 1.88
 111  0.875  0.742  0.747-  65 1.82  29 1.83
 112  0.515  0.124  0.489-   7 1.77  23 1.91
 113  0.001  0.126  0.746-  27 1.81  11 1.84
 114  0.481  0.122  0.267-  14 1.76  30 1.93
 115  0.505  0.124  0.757-  15 1.84  31 1.85
 116  0.505  0.626  0.758-  33 1.81  17 1.88
 117  0.006  0.375  0.005-  18 1.82   4 1.86
 118  0.009  0.874  0.002-  20 1.81   2 1.86
 119  0.987  0.875  0.499-   3 1.81  21 1.83
 120  0.509  0.373  0.015-  22 1.80   8 1.89
 121  0.512  0.875  0.010-   6 1.84  24 1.85
 122  0.014  0.373  0.247-  26 1.80  12 1.86
 123  0.261  0.625  0.003-  52 1.82  36 1.82
 124  0.736  0.126  0.493-  55 1.83  39 1.83
 125  0.244  0.625  0.749-  61 1.81  45 1.83
 126  0.748  0.125  0.756-  63 1.82  47 1.83
 127  0.259  0.373  0.494-  51 1.81  37 1.88
 128  0.260  0.876  0.498-  35 1.82  53 1.86
 129  0.233  0.374  0.257-  58 1.83  44 1.83
 130  0.994  0.003  0.126-  10 2.00   2 2.05
 131  0.994  0.000  0.623-   3 2.01  11 2.07
 132  0.002  0.508  0.125-  12 1.97   4 1.98
 133  0.488  0.015  0.125-  14 1.96   6 1.98
 134  0.488  0.007  0.623-   7 1.93  15 2.01
 135  0.503  0.513  0.128-  16 2.03   8 2.04
 136  0.509  0.507  0.625-   9 2.01  17 2.08
 137  0.001  0.496  0.376-  12 1.93   5 2.03
 138  0.994  0.496  0.873-   4 1.93  13 2.02
 139  0.516  0.983  0.377-   7 1.94  14 1.99
 140  0.522  0.990  0.875-  15 1.95   6 1.96
 141  0.015  0.243  0.127-  18 1.96  26 1.99
 142  0.007  0.255  0.621-  27 1.97  19 2.02
 143  0.527  0.221  0.123-  22 2.00  30 2.07   1 2.07
 144  0.508  0.240  0.624-  23 1.94  31 1.98
 145  0.499  0.739  0.127-  32 1.95  24 1.99
 146  0.988  0.252  0.875-  18 1.97  27 1.98
 147  0.992  0.751  0.375-  21 2.02  28 2.05
 148  0.998  0.751  0.874-  29 2.02  20 2.04
 149  0.484  0.270  0.380-  23 1.90  30 2.02
 150  0.490  0.261  0.876-  31 1.94  22 1.96
 151  0.491  0.762  0.376-  32 1.93  25 2.07
 152  0.495  0.760  0.874-  24 1.94  33 2.03
 153  0.242  0.493  0.125-  44 1.97  36 1.97
 154  0.755  0.019  0.125-  46 2.05  38 2.07
 155  0.755  0.006  0.623-  39 2.00  47 2.07
 156  0.246  0.002  0.375-  35 2.03  42 2.04
 157  0.239  0.996  0.874-  43 2.03  34 2.05
 158  0.249  0.511  0.375-  44 1.93  37 2.05
 159  0.261  0.499  0.874-  36 1.93  45 2.06
 160  0.748  0.494  0.375-  41 2.03  48 2.04
 161  0.754  0.494  0.875-  40 2.03  49 2.04
 162  0.250  0.755  0.125-  60 2.03  52 2.03
 163  0.247  0.752  0.625-  61 2.04  53 2.04
 164  0.743  0.249  0.624-  55 1.96  63 2.00
 165  0.750  0.741  0.126-  64 2.03  56 2.05
 166  0.745  0.743  0.624-  57 2.02  65 2.06
 167  0.259  0.243  0.375-  51 2.04  58 2.04
 168  0.260  0.250  0.876-  50 2.03  59 2.04
 169  0.769  0.258  0.375-  55 1.94  62 2.06
 170  0.761  0.259  0.877-  63 1.94  54 2.05
 171  0.126  0.007  0.007-  34 2.02   2 2.02
 172  0.125  0.993  0.507-   3 1.96  35 1.96
 173  0.123  0.492  0.491-   5 2.02  37 2.05
 174  0.625  0.016  0.018-   6 2.08  38 2.10
 175  0.624  0.982  0.514-   7 1.94  39 1.99
 176  0.626  0.489  0.497-  41 2.02   9 2.07
 177  0.127  0.996  0.739-  11 1.95  43 2.03
 178  0.123  0.514  0.252-  12 2.03  44 2.05
 179  0.123  0.490  0.764-  45 1.95  13 2.05
 180  0.623  0.993  0.733-  47 1.95  15 2.04
 181  0.625  0.511  0.253-  48 2.02  16 2.06
 182  0.627  0.491  0.758-  17 1.95  49 2.03
 183  0.125  0.244  0.988-  18 2.01  50 2.06
 184  0.123  0.256  0.490-  19 1.94  51 2.02
 185  0.125  0.738  0.997-  52 1.97  20 1.98
 186  0.124  0.760  0.494-  21 1.97  53 1.98
 187  0.627  0.240  0.987-  22 2.06  54 2.07
 188  0.123  0.230  0.264-  26 1.97  58 2.00
 189  0.123  0.758  0.753-  61 1.94  29 2.02
 190  0.626  0.758  0.753-  33 1.94  65 2.03
 191  0.378  0.013  0.485-   7 1.92  35 2.00
 192  0.374  0.490  0.009-  36 2.02   8 2.03
 193  0.874  0.016  0.496-  39 1.94   3 1.97
 194  0.875  0.492  0.001-   4 2.04  40 2.05
 195  0.377  0.984  0.260-  14 2.01  42 2.07
 196  0.375  0.502  0.740-  17 1.97  45 1.98
 197  0.872  0.988  0.252-  46 2.01  10 2.08
 198  0.874  0.998  0.752-  47 1.96  11 1.99
 199  0.379  0.236  0.508-  51 1.97  23 2.02
 200  0.377  0.762  0.004-  52 1.95  24 2.03
 201  0.377  0.738  0.504-  53 1.96  25 2.02
 202  0.874  0.240  0.512-  19 1.94  55 2.05
 203  0.872  0.761  0.003-  20 1.96  56 2.02
 204  0.872  0.736  0.504-  21 1.95  57 2.04
 205  0.373  0.265  0.237-  58 1.93  30 2.05
 206  0.377  0.247  0.744-  31 2.02  59 2.05
 207  0.377  0.758  0.245-  32 2.01  60 2.07
 208  0.375  0.751  0.746-  33 1.97  61 1.98
 209  0.875  0.264  0.235-  26 1.94  62 2.09
 210  0.874  0.250  0.741-  63 2.02  27 2.05
 211  0.873  0.760  0.246-  64 1.98  28 2.07
 212  0.997  0.126  0.999-  18 2.02   2 2.04
 213  0.009  0.125  0.506-  19 1.92   3 2.08
 214  0.988  0.625  0.994-   4 2.02  20 2.06
 215  0.011  0.627  0.491-   5 1.93  21 2.03
 216  0.498  0.123  0.988-   6 2.03  22 2.09
 217  0.486  0.627  0.994-  24 2.02   8 2.07
 218  0.513  0.627  0.489-  25 1.97   9 2.00
 219  0.983  0.127  0.248-  10 1.95  26 2.04
 220  0.988  0.623  0.257-  28 1.95  12 2.02
 221  0.014  0.625  0.757-  13 1.97  29 1.98
 222  0.489  0.627  0.262-  32 1.95  16 2.01
 223  0.991  0.374  0.500-  19 1.95   5 2.01
 224  0.489  0.373  0.516-  23 1.98   9 1.99
 225  0.484  0.879  0.507-  25 1.97   7 2.04
 226  0.992  0.375  0.748-  13 1.93  27 2.05
 227  0.005  0.875  0.249-  10 1.97  28 1.98
 228  0.996  0.876  0.745-  29 1.93  11 2.04
 229  0.517  0.374  0.236-  16 1.96  30 2.02
 230  0.495  0.374  0.739-  31 2.03  17 2.04
 231  0.510  0.876  0.239-  32 1.93  14 2.10
 232  0.499  0.876  0.744-  15 2.01  33 2.07
 233  0.254  0.124  0.994-  34 1.96  50 1.97
 234  0.242  0.124  0.498-  35 2.03  51 2.06
 235  0.239  0.627  0.505-  53 2.01  37 2.05
 236  0.754  0.125  0.983-  54 1.95  38 1.96
 237  0.766  0.626  0.992-  56 1.95  40 1.96
 238  0.737  0.627  0.492-  57 1.97  41 1.99
 239  0.266  0.125  0.251-  42 1.94  58 2.05
 240  0.247  0.124  0.756-  43 1.97  59 1.98
 241  0.260  0.623  0.241-  60 1.94  44 2.05
 242  0.774  0.125  0.265-  46 1.96  62 1.97
 243  0.760  0.626  0.259-  64 1.95  48 1.97
 244  0.737  0.626  0.758-  65 1.97  49 1.98
 245  0.244  0.375  0.996-  50 1.94  36 2.04
 246  0.238  0.873  0.001-  34 1.93  52 2.04
 247  0.740  0.373  0.008-  54 1.95  40 1.98
 248  0.763  0.373  0.503-  41 1.96  55 2.02
 249  0.736  0.875  0.018-  38 1.96  56 1.97
 250  0.766  0.878  0.510-  57 1.95  39 2.04
 251  0.258  0.376  0.757-  59 1.94  45 2.03
 252  0.243  0.875  0.252-  42 1.97  60 1.98
 253  0.251  0.874  0.747-  43 1.93  61 2.04
 254  0.735  0.373  0.244-  62 1.95  48 1.98
 255  0.758  0.374  0.746-  49 1.94  63 2.04
 256  0.738  0.877  0.234-  46 1.96  64 1.97
 257  0.754  0.876  0.736-  65 1.93  47 2.04
 

IMPORTANT INFORMATION: All symmetrisations will be switched off!
NOSYMM: (Re-)initialisation of all symmetry stuff for point group C_1.

 
 
 KPOINTS: Title                                   

Automatic generation of k-mesh.
Space group operators:
 irot       det(A)        alpha          n_x          n_y          n_z        tau_x        tau_y        tau_z
    1     1.000000     0.000001     1.000000     0.000000     0.000000     0.000000     0.000000     0.000000
 
 Subroutine IBZKPT returns following result:
 ===========================================
 
 Found      4 irreducible k-points:
 
 Following reciprocal coordinates:
            Coordinates               Weight
  0.250000  0.250000  0.250000      2.000000
 -0.250000  0.250000  0.250000      2.000000
  0.250000 -0.250000  0.250000      2.000000
 -0.250000 -0.250000  0.250000      2.000000
 
 Following cartesian coordinates:
            Coordinates               Weight
  0.016206  0.016206  0.016206      2.000000
 -0.016206  0.016206  0.016206      2.000000
  0.016206 -0.016206  0.016206      2.000000
 -0.016206 -0.016206  0.016206      2.000000
 


--------------------------------------------------------------------------------------------------------




 Dimension of arrays:
   k-points           NKPTS =      4   k-points in BZ     NKDIM =      4   number of bands    NBANDS=   1164
   number of dos      NEDOS =   3001   number of ions     NIONS =    257
   non local maximal  LDIM  =      6   non local SUM 2l+1 LMDIM =     18
   total plane-waves  NPLWV = ******
   max r-space proj   IRMAX =   7595   max aug-charges    IRDMAX= 146383
   dimension x,y,z NGX =   120 NGY =  120 NGZ =  120
   dimension x,y,z NGXF=   240 NGYF=  240 NGZF=  240
   support grid    NGXF=   480 NGYF=  480 NGZF=  480
   ions per type =               1  64  64 128
   NGX,Y,Z   is equivalent  to a cutoff of  12.93, 12.93, 12.93 a.u.
   NGXF,Y,Z  is equivalent  to a cutoff of  25.86, 25.86, 25.86 a.u.

 SYSTEM =  LTO                                     
 POSCAR =  config 33                               

 Startparameter for this run:
   NWRITE =      2    write-flag & timer
   PREC   = accura    normal or accurate (medium, high low for compatibility)
   ISTART =      1    job   : 0-new  1-cont  2-samecut
   ICHARG =      0    charge: 1-file 2-atom 10-const
   ISPIN  =      2    spin polarized calculation?
   LNONCOLLINEAR =      F non collinear calculations
   LSORBIT =      F    spin-orbit coupling
   INIWAV =      1    electr: 0-lowe 1-rand  2-diag
   LASPH  =      T    aspherical Exc in radial PAW
   METAGGA=      F    non-selfconsistent MetaGGA calc.

 Electronic Relaxation 1
   ENCUT  =  500.0 eV  36.75 Ry    6.06 a.u.  28.13 28.13 28.13*2*pi/ulx,y,z
   ENINI  =  500.0     initial cutoff
   ENAUG  =  628.9 eV  augmentation charge cutoff
   NELM   =     60;   NELMIN=  2; NELMDL=  0     # of ELM steps 
   EDIFF  = 0.1E-05   stopping-criterion for ELM
   LREAL  =      T    real-space projection
   NLSPLINE    = F    spline interpolate recip. space projectors
   LCOMPAT=      F    compatible to vasp.4.4
   GGA_COMPAT  = T    GGA compatible to vasp.4.4-vasp.4.6
   LMAXPAW     = -100 max onsite density
   LMAXMIX     =    4 max onsite mixed and CHGCAR
   VOSKOWN=      0    Vosko Wilk Nusair interpolation
   ROPT   =   -0.00010  -0.00010  -0.00010  -0.00010
 Ionic relaxation
   EDIFFG = -.5E-01   stopping-criterion for IOM
   NSW    =    100    number of steps for IOM
   NBLOCK =      1;   KBLOCK =    100    inner block; outer block 
   IBRION =      1    ionic relax: 0-MD 1-quasi-New 2-CG
   NFREE  =      0    steps in history (QN), initial steepest desc. (CG)
   ISIF   =      2    stress and relaxation
   IWAVPR =     11    prediction:  0-non 1-charg 2-wave 3-comb
   ISYM   =      0    0-nonsym 1-usesym 2-fastsym
   LCORR  =      T    Harris-Foulkes like correction to forces

   POTIM  = 0.5000    time-step for ionic-motion
   TEIN   =    0.0    initial temperature
   TEBEG  =    0.0;   TEEND  =   0.0 temperature during run
   SMASS  =  -3.00    Nose mass-parameter (am)
   estimated Nose-frequenzy (Omega)   =  0.10E-29 period in steps =****** mass=  -0.544E-26a.u.
   SCALEE = 1.0000    scale energy and forces
   NPACO  =    256;   APACO  = 16.0  distance and # of slots for P.C.
   PSTRESS=    0.0 pullay stress

  Mass of Ions in am
   POMASS =   7.01 47.88 16.00 19.00
  Ionic Valenz
   ZVAL   =   3.00 10.00  6.00  7.00
  Atomic Wigner-Seitz radii
   RWIGS  =  -1.00 -1.00 -1.00 -1.00
  virtual crystal weights 
   VCA    =   1.00  1.00  1.00  1.00
   NELECT =    1923.0000    total number of electrons
   NUPDOWN=       1.0000    fix difference up-down

 DOS related values:
   EMIN   =  10.00;   EMAX   =-10.00  energy-range for DOS
   EFERMI =   0.00
   ISMEAR =     0;   SIGMA  =   0.01  broadening in eV -4-tet -1-fermi 0-gaus

 Electronic relaxation 2 (details)
   IALGO  =     38    algorithm
   LDIAG  =      T    sub-space diagonalisation (order eigenvalues)
   LSUBROT=      F    optimize rotation matrix (better conditioning)
   TURBO    =      0    0=normal 1=particle mesh
   IRESTART =      0    0=no restart 2=restart with 2 vectors
   NREBOOT  =      0    no. of reboots
   NMIN     =      0    reboot dimension
   EREF     =   0.00    reference energy to select bands
   IMIX   =      4    mixing-type and parameters
     AMIX     =   0.40;   BMIX     =  1.00
     AMIX_MAG =   1.60;   BMIX_MAG =  1.00
     AMIN     =   0.10
     WC   =   100.;   INIMIX=   1;  MIXPRE=   1;  MAXMIX= -45

 Intra band minimization:
   WEIMIN = 0.0010     energy-eigenvalue tresh-hold
   EBREAK =  0.21E-09  absolut break condition
   DEPER  =   0.30     relativ break condition  

   TIME   =   0.40     timestep for ELM

  volume/ion in A,a.u.               =      14.28        96.39
  Fermi-wavevector in a.u.,A,eV,Ry     =   1.319690  2.493853 23.695660  1.741582
  Thomas-Fermi vector in A             =   2.449570
 
 Write flags
   LWAVE        =      T    write WAVECAR
   LDOWNSAMPLE  =      F    k-point downsampling of WAVECAR
   LCHARG       =      T    write CHGCAR
   LVTOT        =      F    write LOCPOT, total local potential
   LVHAR        =      F    write LOCPOT, Hartree potential only
   LELF         =      F    write electronic localiz. function (ELF)
   LORBIT       =     11    0 simple, 1 ext, 2 COOP (PROOUT), +10 PAW based schemes


 Dipole corrections
   LMONO  =      F    monopole corrections only (constant potential shift)
   LDIPOL =      F    correct potential (dipole corrections)
   IDIPOL =      0    1-x, 2-y, 3-z, 4-all directions 
   EPSILON=  1.0000000 bulk dielectric constant

 LDA+U is selected, type is set to LDAUTYPE =  2
   angular momentum for each species LDAUL =    -1    2   -1   -1
   U (eV)           for each species LDAUU =   0.0  4.2  0.0  0.0
   J (eV)           for each species LDAUJ =   0.0  0.0  0.0  0.0
 Exchange correlation treatment:
   GGA     =    PS    GGA type
   LEXCH   =    14    internal setting for exchange type
   VOSKOWN=      0    Vosko Wilk Nusair interpolation
   LHFCALC =     F    Hartree Fock is set to
   LHFONE  =     F    Hartree Fock one center treatment
   AEXX    =    0.0000 exact exchange contribution

 Linear response parameters
   LEPSILON=     F    determine dielectric tensor
   LRPA    =     F    only Hartree local field effects (RPA)
   LNABLA  =     F    use nabla operator in PAW spheres
   LVEL    =     F    velocity operator in full k-point grid
   LINTERFAST=   F  fast interpolation
   KINTER  =     0    interpolate to denser k-point grid
   CSHIFT  =0.1000    complex shift for real part using Kramers Kronig
   OMEGAMAX=  -1.0    maximum frequency
   DEG_THRESHOLD= 0.2000000E-02 threshold for treating states as degnerate
   RTIME   =   -0.100 relaxation time in fs
  (WPLASMAI=    0.000 imaginary part of plasma frequency in eV, 0.658/RTIME)
   DFIELD  = 0.0000000 0.0000000 0.0000000 field for delta impulse in time
 
 Orbital magnetization related:
   ORBITALMAG=     F  switch on orbital magnetization
   LCHIMAG   =     F  perturbation theory with respect to B field
   DQ        =  0.001000  dq finite difference perturbation B field
   LLRAUG    =     F  two centre corrections for induced B field



--------------------------------------------------------------------------------------------------------


 quasi-Newton-method for relaxation of ions
 charge density and potential will be updated during run
 spin polarized calculation
 Variant of blocked Davidson
 Davidson routine will perform the subspace rotation
 perform sub-space diagonalisation
    after iterative eigenvector-optimisation
 modified Broyden-mixing scheme, WC =      100.0
 initial mixing is a Kerker type mixing with AMIX =  0.4000 and BMIX =      1.0000
 Hartree-type preconditioning will be used
 using additional bands          202
 real space projection scheme for non local part
 use partial core corrections
 calculate Harris-corrections to forces 
   (improved forces if not selfconsistent)
 use gradient corrections 
 use of overlap-Matrix (Vanderbilt PP)
 Gauss-broadening in eV      SIGMA  =   0.01


--------------------------------------------------------------------------------------------------------


  energy-cutoff  :      500.00
  volume of cell :     3671.03
      direct lattice vectors                 reciprocal lattice vectors
    15.426331000  0.000000000  0.000000000     0.064824228  0.000000000  0.000000000
     0.000000000 15.426331000  0.000000000     0.000000000  0.064824228  0.000000000
     0.000000000  0.000000000 15.426331000     0.000000000  0.000000000  0.064824228

  length of vectors
    15.426331000 15.426331000 15.426331000     0.064824228  0.064824228  0.064824228


 
 old parameters found on file WAVECAR:
  energy-cutoff  :      500.00
  volume of cell :     3671.03
      direct lattice vectors                 reciprocal lattice vectors
    15.426331000  0.000000000  0.000000000     0.064824228  0.000000000  0.000000000
     0.000000000 15.426331000  0.000000000     0.000000000  0.064824228  0.000000000
     0.000000000  0.000000000 15.426331000     0.000000000  0.000000000  0.064824228

  length of vectors

 
 k-points in units of 2pi/SCALE and weight: Title                                   
   0.01620606  0.01620606  0.01620606       0.250
  -0.01620606  0.01620606  0.01620606       0.250
   0.01620606 -0.01620606  0.01620606       0.250
  -0.01620606 -0.01620606  0.01620606       0.250
 
 k-points in reciprocal lattice and weights: Title                                   
   0.25000000  0.25000000  0.25000000       0.250
  -0.25000000  0.25000000  0.25000000       0.250
   0.25000000 -0.25000000  0.25000000       0.250
  -0.25000000 -0.25000000  0.25000000       0.250
 
 position of ions in fractional coordinates (direct lattice) 
   0.63140023  0.13698669  0.13102992
   0.99645021  0.99380071  0.99360419
   0.99897930  0.99159062  0.49280507
   0.00639873  0.49514877  0.99759099
   0.99410389  0.50378544  0.50733849
   0.49373256  0.99246660  0.99921193
   0.50172666  0.00984452  0.49861778
   0.50471321  0.49435749  0.99713064
   0.49197656  0.49973414  0.49603044
   0.00661972  0.00281834  0.25474473
   0.00251382  0.00747296  0.75631642
   0.99343819  0.49201569  0.25129599
   0.99273982  0.49975240  0.74180201
   0.50351342  0.01163849  0.25139497
   0.49325846  0.00596577  0.75289314
   0.49252846  0.49653626  0.25803209
   0.50113584  0.50396794  0.75967773
   0.99657742  0.25717195  0.00215134
   0.99771120  0.24827058  0.49072802
   0.99872773  0.75717198  0.00604620
   0.99672276  0.75687497  0.50555942
   0.49528688  0.25766016  0.00248773
   0.50892766  0.24705005  0.49832980
   0.50791313  0.75570951  0.99931667
   0.50722955  0.75352248  0.50878299
   0.99849913  0.25793415  0.25467501
   0.00710637  0.24300613  0.74815186
   0.00661885  0.74697191  0.24290920
   0.99273630  0.75044699  0.74255477
   0.50302183  0.24451680  0.25237585
   0.50739537  0.24382581  0.75215464
   0.50675327  0.75166374  0.25209957
   0.50214564  0.74172416  0.74395424
   0.25654042  0.99695678  0.00523810
   0.25176668  0.99340546  0.50588837
   0.24422458  0.50762994  0.99770110
   0.25487479  0.49427778  0.50668682
   0.75751326  0.99802317  0.99229835
   0.74843039  0.00760867  0.49339928
   0.74187801  0.50170872  0.00544256
   0.75554000  0.50013098  0.50620092
   0.24445356  0.00199485  0.24275643
   0.25893614  0.99816993  0.74388421
   0.25447895  0.49040658  0.25191874
   0.24664866  0.50591617  0.74106525
   0.74284183  0.00178169  0.25611240
   0.74694308  0.00617503  0.75691050
   0.75538276  0.49946231  0.24284491
   0.75733141  0.49990568  0.74278703
   0.25719948  0.25097382  0.00734938
   0.25330060  0.25676300  0.50571925
   0.25274306  0.74165929  0.99348312
   0.25237082  0.75528658  0.49249513
   0.75853180  0.24861538  0.00937154
   0.74191960  0.24403300  0.49707548
   0.74194482  0.75008375  0.99343735
   0.74158628  0.75461105  0.49354027
   0.24793618  0.25718137  0.24366501
   0.24373889  0.25208213  0.74434400
   0.24372150  0.74641742  0.25563456
   0.24774248  0.74164829  0.75635682
   0.74075522  0.24655285  0.24496022
   0.74426535  0.24308718  0.75374856
   0.74531442  0.75127199  0.25675481
   0.75764344  0.75216601  0.75658522
   0.00950956  0.50346485  0.62470262
   0.00237250  0.00369189  0.37521705
   0.00645752  0.00013566  0.87246335
   0.49805052  0.48823599  0.37609603
   0.49301496  0.49074006  0.87568185
   0.00073009  0.74403844  0.12528134
   0.00310936  0.74487080  0.62370433
   0.50439060  0.74524990  0.62449578
   0.98693444  0.24848171  0.37609746
   0.25956841  0.00047893  0.12451803
   0.26271831  0.00300173  0.62456840
   0.23819463  0.49417581  0.62578521
   0.74900323  0.50656728  0.12586736
   0.74390055  0.50444752  0.62474428
   0.73936182  0.99022978  0.37564940
   0.73800907  0.98782362  0.87346195
   0.23673746  0.24912611  0.12539981
   0.24500408  0.25063911  0.62531940
   0.73252349  0.22663883  0.12462998
   0.25617587  0.74522254  0.37440594
   0.25414585  0.75097557  0.87495626
   0.75371034  0.76182810  0.37381953
   0.75135272  0.76194264  0.87549024
   0.12474446  0.50832289  0.99304407
   0.62575300  0.51108033  0.99660360
   0.12491098  0.01002524  0.24502819
   0.62580581  0.02294213  0.23679279
   0.62488243  0.26373239  0.48814312
   0.62471066  0.73634476  0.99865568
   0.62455717  0.76773209  0.49481345
   0.12478299  0.25563607  0.75671671
   0.12507347  0.74124224  0.25335810
   0.63029024  0.22843343  0.26411057
   0.62587999  0.25639847  0.75784580
   0.62279899  0.74277423  0.25345347
   0.37613913  0.99175010  0.98778147
   0.37559269  0.51023837  0.50579495
   0.87296313  0.99247858  0.99408903
   0.87514285  0.51022421  0.50140379
   0.37660874  0.00039476  0.76327613
   0.37372085  0.48693719  0.24774506
   0.87503919  0.48752603  0.25042534
   0.87528243  0.51134174  0.74542727
   0.37644672  0.25230547  0.01429735
   0.87526151  0.25398431  0.01412827
   0.87462988  0.74164894  0.74687246
   0.51491780  0.12354541  0.48861560
   0.00128788  0.12610759  0.74605483
   0.48116119  0.12219165  0.26739365
   0.50506627  0.12435849  0.75742153
   0.50451204  0.62550584  0.75751713
   0.00614685  0.37476856  0.00486734
   0.00863080  0.87403627  0.00208921
   0.98671187  0.87496318  0.49947857
   0.50911524  0.37297774  0.01494561
   0.51172860  0.87495574  0.01044196
   0.01379565  0.37322523  0.24711471
   0.26130044  0.62451001  0.00304279
   0.73569027  0.12575790  0.49332943
   0.24387763  0.62451098  0.74885475
   0.74756943  0.12491943  0.75633401
   0.25893396  0.37306590  0.49350323
   0.26031871  0.87566279  0.49834158
   0.23316918  0.37388551  0.25725834
   0.99378165  0.00289097  0.12585445
   0.99439544  0.00037627  0.62286487
   0.00211399  0.50846705  0.12522204
   0.48809213  0.01460902  0.12535540
   0.48810097  0.00737832  0.62270571
   0.50287363  0.51257093  0.12801752
   0.50935223  0.50725311  0.62523739
   0.00065052  0.49555221  0.37619552
   0.99362712  0.49641448  0.87293155
   0.51587414  0.98305957  0.37668279
   0.52164775  0.98978074  0.87498816
   0.01524978  0.24319317  0.12729871
   0.00666552  0.25548049  0.62129066
   0.52687885  0.22113276  0.12258151
   0.50846202  0.23987489  0.62394209
   0.49856336  0.73946702  0.12683841
   0.98841614  0.25208754  0.87464055
   0.99236317  0.75060413  0.37471159
   0.99825596  0.75138336  0.87367499
   0.48371778  0.26963034  0.37974679
   0.49028509  0.26137720  0.87551439
   0.49119305  0.76240291  0.37557661
   0.49513417  0.76045321  0.87409729
   0.24227688  0.49320963  0.12489809
   0.75478729  0.01939865  0.12503527
   0.75487936  0.00550776  0.62284419
   0.24564033  0.00201818  0.37491079
   0.23862406  0.99577548  0.87376129
   0.24932896  0.51128040  0.37530548
   0.26072372  0.49860659  0.87373516
   0.74810783  0.49416417  0.37495245
   0.75428829  0.49401237  0.87495899
   0.24955186  0.75453271  0.12470209
   0.24679401  0.75181077  0.62458235
   0.74293794  0.24944112  0.62404400
   0.74985837  0.74060635  0.12563076
   0.74499666  0.74311388  0.62408895
   0.25882479  0.24251123  0.37451814
   0.25984670  0.24955341  0.87574723
   0.76872070  0.25831314  0.37486381
   0.76115982  0.25932067  0.87722899
   0.12633498  0.00731992  0.00666688
   0.12492245  0.99254478  0.50705232
   0.12325439  0.49207311  0.49088130
   0.62494307  0.01617490  0.01843015
   0.62352747  0.98170109  0.51386723
   0.62557151  0.48911193  0.49701088
   0.12725188  0.99584623  0.73901630
   0.12342263  0.51407344  0.25173770
   0.12323504  0.48994967  0.76377317
   0.62348452  0.99336743  0.73295688
   0.62507494  0.51079207  0.25315605
   0.62672876  0.49098019  0.75770325
   0.12516706  0.24364173  0.98801369
   0.12312937  0.25591042  0.49020054
   0.12517443  0.73777507  0.99741351
   0.12399220  0.75977581  0.49384078
   0.62657589  0.23973053  0.98692542
   0.12278528  0.23005526  0.26355585
   0.12322257  0.75807815  0.75322154
   0.62627084  0.75781584  0.75334207
   0.37825979  0.01342541  0.48464100
   0.37371662  0.48998619  0.00935720
   0.87371903  0.01625752  0.49613114
   0.87452705  0.49191585  0.00146481
   0.37657828  0.98437553  0.26048055
   0.37485510  0.50237512  0.73994912
   0.87242779  0.98763942  0.25195402
   0.87390925  0.99790614  0.75157706
   0.37904361  0.23574950  0.50837310
   0.37681865  0.76246221  0.00434875
   0.37745387  0.73821936  0.50380100
   0.87408733  0.23954414  0.51198320
   0.87198095  0.76132015  0.00250688
   0.87200615  0.73594951  0.50405955
   0.37267377  0.26496043  0.23723670
   0.37671560  0.24650644  0.74414383
   0.37691008  0.75823156  0.24515647
   0.37507476  0.75096552  0.74561328
   0.87472623  0.26389005  0.23486530
   0.87438707  0.25015893  0.74085415
   0.87305819  0.75974026  0.24606025
   0.99703048  0.12600426  0.99934860
   0.00868732  0.12548639  0.50552748
   0.98813794  0.62473829  0.99369170
   0.01082022  0.62686690  0.49139267
   0.49785619  0.12316919  0.98766183
   0.48602201  0.62703058  0.99427960
   0.51300948  0.62736679  0.48930534
   0.98322192  0.12679013  0.24753449
   0.98756344  0.62274146  0.25695652
   0.01357803  0.62477254  0.75656593
   0.48941600  0.62657817  0.26209130
   0.99106475  0.37401974  0.50049453
   0.48869543  0.37259792  0.51620034
   0.48399041  0.87924083  0.50682429
   0.99187053  0.37472426  0.74844914
   0.00548216  0.87522053  0.24914003
   0.99629838  0.87572596  0.74512046
   0.51680203  0.37358447  0.23578027
   0.49481472  0.37380382  0.73865793
   0.50966886  0.87630685  0.23937658
   0.49939068  0.87595956  0.74396493
   0.25350011  0.12376020  0.99430425
   0.24179578  0.12409467  0.49760465
   0.23930852  0.62651380  0.50504404
   0.75398335  0.12479498  0.98311164
   0.76592111  0.62599444  0.99161671
   0.73667604  0.62681207  0.49176773
   0.26552125  0.12549559  0.25144749
   0.24711573  0.12449225  0.75576085
   0.26022960  0.62275310  0.24061555
   0.77448804  0.12475148  0.26477026
   0.75999903  0.62593718  0.25930071
   0.73718792  0.62586726  0.75753250
   0.24394956  0.37533026  0.99639270
   0.23848116  0.87302872  0.00111914
   0.74012750  0.37347301  0.00842119
   0.76268125  0.37313811  0.50330792
   0.73563943  0.87535351  0.01756313
   0.76644836  0.87756004  0.51032019
   0.25818920  0.37603117  0.75711939
   0.24338444  0.87472799  0.25188557
   0.25113787  0.87354302  0.74679962
   0.73516324  0.37288801  0.24381120
   0.75802742  0.37448970  0.74627405
   0.73778462  0.87690030  0.23367450
   0.75376786  0.87577943  0.73576714
 
 position of ions in cartesian coordinates  (Angst):
   9.74018891  2.11320197  2.02131086
  15.37157073 15.33069873 15.32766706
  15.41058534 15.29660507  7.60217410
   0.09870892  7.63832886 15.38916889
  15.33537570  7.77156097  7.82637143
   7.61648196 15.31011831 15.41417398
   7.73980157  0.15186478  7.69184290
   7.78587307  7.62612224 15.38206733
   7.58939323  7.70906431  7.65192973
   0.10211793  0.04347658  3.92977646
   0.03877901  0.11528028 11.66718744
  15.32510631  7.58999695  3.87657517
  15.31433299  7.70934600 11.44328340
   7.76736472  0.17953921  3.87810208
   7.60916823  0.09202995 11.61437872
   7.59790703  7.65973271  3.98048843
   7.73068738  7.77437629 11.71904018
  15.37353312  3.96721962  0.03318734
  15.39102324  3.82990410  7.57013288
  15.40670452 11.68038558  0.09327073
  15.37577528 11.67580387  7.79892695
   7.64045936  3.97475096  0.03837656
   7.85088655  3.81107581  7.68740038
   7.83523604 11.65782511 15.41578967
   7.82469091 11.62408726  7.84865479
  15.40317804  3.97897750  3.92870099
   0.10962515  3.74869299 11.54123827
   0.10210454 11.52303589  3.74719778
  15.31427873 11.57664374 11.45489572
   7.75978120  3.77199712  3.89323334
   7.82724896  3.76133769 11.60298651
   7.81734374 11.59541373  3.88897137
   7.74626482 11.44208233 11.47648438
   3.95747737 15.37938530  0.08080465
   3.88383608 15.32460141  7.80400142
   3.76748914  7.83086745 15.39086735
   3.93178292  7.62489265  7.81631861
  11.68565029 15.39583581 15.30752284
  11.54553487  0.11737388  7.61134057
  11.44445575  7.73952481  0.08395875
  11.65521010  7.71518602  7.80882291
   3.77102147  0.03077319  3.74484101
   3.99443462 15.39809970 11.47540401
   3.92567647  7.56517416  3.88618180
   3.80488389  7.80443026 11.43191779
  11.45932396  0.02748499  3.95087461
  11.52259124  0.09525799 11.67635185
  11.65278451  7.70487094  3.74620600
  11.68284496  7.71171050 11.45847859
   3.96764435  3.87160515  0.11337396
   3.90749897  3.96091101  7.80139250
   3.89889803 11.44108164 15.32579947
   3.89315577 11.65130085  7.59739287
  11.70136269  3.83522308  0.14456841
  11.44509725  3.76453377  7.66805095
  11.44548637 11.57104023 15.32509342
  11.43995541 11.64087990  7.61351549
   3.82474563  3.96736487  3.75885708
   3.75999686  3.88870234 11.48249694
   3.75972847 11.51448223  3.94350332
   3.82175755 11.44091205 11.66781072
  11.42713527  3.80340580  3.77883744
  11.48128357  3.74994332 11.62757484
  11.49746696 11.58937045  3.96078473
  11.68765846 11.60316181 11.67133410
   0.14669758  7.76661545  9.63686943
   0.03659903  0.05695232  5.78822239
   0.09961588  0.00209279 13.45890844
   7.68309213  7.53168995  5.80178179
   7.60541199  7.57031853 13.50855801
   0.01126262 11.47778324  1.93263135
   0.04796596 11.49062350  9.62146951
   7.78089639 11.49647165  9.63367856
  15.22477740  3.83316112  5.80180397
   4.00418815  0.00738810  1.92085630
   4.05277958  0.04630569  9.63479891
   3.67446925  7.62331955  9.65356977
  11.55437181  7.81447461  1.94167153
  11.47565614  7.78177435  9.63751202
  11.40564015 15.27561233  5.79489205
  11.38477218 15.23849421 13.47431316
   3.65199040  3.84310190  1.93445902
   3.77951402  3.86644190  9.64638403
  11.30014985  3.49620556  1.92258325
   3.95185384 11.49604957  5.77571002
   3.92053801 11.58479766 13.49736494
  11.62698524 11.75221238  5.76666378
  11.59061574 11.75397937 13.50560226
   1.92434933  7.84155718 15.31902646
   9.65307292  7.88409434 15.37393702
   1.92691807  0.15465262  3.77988594
   9.65388752  0.35391289  3.65284388
   9.63964322  4.06842308  7.53025736
   9.63699344 11.35909807 15.40559308
   9.63462560 11.84328927  7.63315601
   1.92494371  3.94352663 11.67336243
   1.92942467 11.43464821  3.90838586
   9.72306591  3.52388963  4.07425707
   9.65503187  3.95528773 11.69078012
   9.60750340 11.45828118  3.90985707
   5.80244675 15.29906524 15.23784398
   5.79401719  7.87110592  7.80256029
  13.46661813 15.31030306 15.33514637
  13.50024333  7.87088749  7.73482082
   5.80969110  0.00608966 11.77455017
   5.76514146  7.51165433  3.82179723
  13.49864411  7.52073787  3.86314423
  13.50239651  7.88812697 11.49920777
   5.80719164  3.89214776  0.22055563
  13.50207373  3.91804609  0.21794736
  13.49233007 11.44092201 11.52150178
   7.94329249  1.90585235  7.53754592
   0.01986727  1.94537740 11.50888875
   7.42255173  1.88496879  4.12490301
   7.79131948  1.91839521 11.68423519
   7.78276965  9.64926016 11.68570998
   0.09482342  5.78130391  0.07508524
   0.13314154 13.48317287  0.03222891
  15.22134398 13.49747158  7.70512178
   7.85378021  5.75367806  0.23055589
   7.89409481 13.49735685  0.16108118
   0.21281625  5.75749586  3.81207330
   4.03090713  9.63389809  0.04693915
  11.34900165  1.93998292  7.61026309
   3.76213706  9.63391315 11.55208119
  11.53225343  1.92704852 11.66745877
   3.99440092  5.75503812  7.61294423
   4.01576266 13.50826407  7.68758222
   3.59694491  5.76768158  3.96855236
  15.33040467  0.04459699  1.94147243
  15.33987314  0.00580453  9.60851970
   0.03261112  7.84378102  1.93171661
   7.52947068  0.22536356  1.93377388
   7.52960719  0.11382037  9.60606444
   7.75749514  7.90708880  1.97484060
   7.85743610  7.82505441  9.64511897
   0.01003514  7.64455245  5.80331659
  15.32802084  7.65785411 13.46613108
   7.95804520 15.16500232  5.81083338
   8.04711083 15.26868536 13.49785698
   0.23524809  3.75157836  1.96375208
   0.10282447  3.94112654  9.58423544
   8.12780758  3.41126715  1.89098301
   7.84370347  3.70038941  9.62513721
   7.69100347 11.40726296  1.95665126
  15.24763448  3.88878578 13.49249461
  15.30852278 11.57906776  5.78042504
  15.39942694 11.59108845 13.47759966
   7.46199056  4.15940680  5.85809966
   7.56330008  4.03209119 13.50597474
   7.57730664 11.76107966  5.79376911
   7.63810362 11.73100299 13.48411413
   3.73744332  7.60841502  1.92671928
  11.64359864  0.29924996  1.92883552
  11.64501893  0.08496456  9.60820060
   3.78932909  0.03113309  5.78349789
   3.68109372 15.36116222 13.47893092
   3.84623099  7.88718073  5.78958655
   4.02201038  7.69167030 13.47852783
  11.54055908  7.62314000  5.78414059
  11.63590086  7.62079831 13.49740698
   3.84966958 11.63967133  1.92369565
   3.80712616 11.59768184  9.63501413
  11.46080652  3.84796130  9.62670937
  11.56756339 11.42483862  1.93802176
  11.49256511 11.46352071  9.62740269
   3.99271689  3.74105850  5.77744084
   4.00848122  3.84969356 13.50956667
  11.85853993  3.98482394  5.78277320
  11.74190339  4.00036642 13.53242482
   1.94888520  0.11291946  0.10284550
   1.92709508 15.31132438  7.82195695
   1.90136302  7.59088268  7.57249742
   9.64057870  0.24951943  0.28430963
   9.61874108 15.14404603  7.92708594
   9.65027314  7.54520257  7.66705430
   1.96302955 15.36225361 11.40031008
   1.90395835  7.93026700  3.88338905
   1.90106446  7.55812579 11.78221766
   9.61807853 15.32401478 11.30683539
   9.64261288  7.87964757  3.90526909
   9.66812523  7.57402289 11.68858119
   1.93086845  3.75849798 15.24142628
   1.89943445  3.94775879  7.56199584
   1.93098212 11.38116238 15.38643091
   1.91274467 11.72055316  7.61815137
   9.66576705  3.69816254 15.22463813
   1.89412631  3.54890854  4.06569977
   1.90087216 11.69436444 11.61944479
   9.66106132 11.69031805 11.62130417
   5.83516076  0.20710479  7.47623250
   5.76507630  7.55868918  0.14434730
  13.47827899  0.25079396  7.65348315
  13.49074376  7.58845667  0.02259672
   5.80922119 15.18530271  4.01825914
   5.78263881  7.74980493 11.41470007
  13.45835982 15.23565257  3.88672604
  13.48121343 15.39403039 11.59407654
   5.84725216  3.63674987  7.84233176
   5.81292924 11.76199436  0.06708526
   5.82272838 11.38801627  7.77180096
  13.48396047  3.69528712  7.89802227
  13.45146671 11.74437665  0.03867190
  13.45185551 11.35300071  7.77578946
   5.74898894  4.08736733  3.65969186
   5.81133953  3.80268992 11.47940898
   5.81433967 11.69673106  3.78186479
   5.78602746 11.58464261 11.50207726
  13.49381633  4.07085522  3.62310982
  13.48858440  3.85903450 11.42866134
  13.46808463 11.72000466  3.79580689
  15.38052223  1.94378349 15.41628226
   0.13401353  1.93579457  7.79843417
  15.24334300  9.63741959 15.32901714
   0.16691637  9.67025623  7.58038596
   7.68009431  1.90004868 15.23599827
   7.49753645  9.67278128 15.33808622
   7.91385405  9.67796782  7.54818613
  15.16750674  1.95590653  3.81854896
  15.23448058  9.60661594  3.96389628
   0.20945923  9.63794799 11.67103642
   7.54989317  9.66580225  4.04310710
  15.28849294  5.76975228  7.72079421
   7.53877751  5.74781886  7.96307728
   7.46619621 13.56346007  7.81843919
  15.30092305  5.78062050 11.54582411
   0.08456961 13.50144153  3.84331655
  15.36922865 13.50923859 11.49447481
   7.97235925  5.76303768  3.63722449
   7.63317561  5.76642153 11.39478169
   7.86232050 13.51819958  3.69270232
   7.70376586 13.51284216 11.47664921
   3.91057659  1.90916576 15.33846648
   3.73002174  1.91432543  7.67621410
   3.69165252  9.66480933  7.79097646
  11.63119679  1.92512862 15.16580554
  11.81535263  9.65679743 15.29700754
  11.36420844  9.66941044  7.58617176
   4.09601868  1.93593644  3.87891218
   3.81208908  1.92045866 11.65861707
   4.01438792  9.60679543  3.71181511
  11.94750890  1.92445755  4.08443372
  11.72399656  9.65591411  4.00005851
  11.37210488  9.65483548 11.68594706
   3.76324662  5.78996880 15.37068353
   3.67888938 13.46762997  0.01726425
  11.41745183  5.76131823  0.12990802
  11.76537335  5.75615195  7.76419464
  11.34821738 13.50349291  0.27093469
  11.82348613 13.53753166  7.87236821
   3.98291213  5.80078135 11.67957436
   3.75452890 13.49384350  3.88567023
   3.87413588 13.47556381 11.52037814
  11.34087149  5.75229384  3.76111229
  11.69358194  5.77700206 11.51227044
  11.38130972 13.52735429  3.60474019
  11.62787253 13.51006334 11.35018740
 


--------------------------------------------------------------------------------------------------------


 k-point  1 :   0.2500 0.2500 0.2500  plane waves:   93161
 k-point  2 :  -0.2500 0.2500 0.2500  plane waves:   93161
 k-point  3 :   0.2500-0.2500 0.2500  plane waves:   93161
 k-point  4 :  -0.2500-0.2500 0.2500  plane waves:   93161

 maximum and minimum number of plane-waves per node :     11686    11606

 maximum number of plane-waves:     93161
 maximum index in each direction: 
   IXMAX=   28   IYMAX=   28   IZMAX=   27
   IXMIN=  -28   IYMIN=  -28   IZMIN=  -28


 real space projection operators:
  total allocation   :     105600.76 KBytes
  max/ min on nodes  :      13243.24      13175.97


 parallel 3D FFT for wavefunctions:
    minimum data exchange during FFTs selected (reduces bandwidth)
 parallel 3D FFT for charge:
    minimum data exchange during FFTs selected (reduces bandwidth)


 total amount of memory used by VASP MPI-rank0   291476. kBytes
=======================================================================

   base      :      30000. kBytes
   nonlr-proj:      49441. kBytes
   fftplans  :      27976. kBytes
   grid      :      34041. kBytes
   one-center:       1026. kBytes
   wavefun   :     148992. kBytes
 
     INWAV:  cpu time   58.3463: real time   58.8768
 Broyden mixing: mesh for mixing (old mesh)
   NGX = 57   NGY = 57   NGZ = 57
  (NGX  =240   NGY  =240   NGZ  =240)
  gives a total of 185193 points

 charge density for first step will be calculated from the start-wavefunctions


--------------------------------------------------------------------------------------------------------


 Maximum index for non-local projection operator          967
 Maximum index for augmentation-charges         3291 (set IRDMAX)


--------------------------------------------------------------------------------------------------------


 initial charge from wavefunction
 First call to EWALD:  gamma=   0.115
 Maximum number of real-space cells 3x 3x 3
 Maximum number of reciprocal cells 3x 3x 3

    FEWALD:  cpu time    0.0164: real time    0.0164


--------------------------------------- Iteration      1(   1)  ---------------------------------------


    POTLOK:  cpu time    0.2697: real time    0.2868
    SETDIJ:  cpu time    1.3899: real time    1.3910
     EDDAV:  cpu time   99.3601: real time   99.8442
       DOS:  cpu time    0.0020: real time    0.0020
    CHARGE:  cpu time    5.2785: real time    5.2826
    MIXING:  cpu time    0.0122: real time    0.0123
    --------------------------------------------
      LOOP:  cpu time  106.3126: real time  106.8191

 eigenvalue-minimisations  : 16212
 total energy-change (2. order) :-0.1757931E+04  (-0.1982398E-06)
 number of electron    1923.0000033 magnetization       1.0000000
 augmentation part      496.8083093 magnetization       0.5823145

 Broyden mixing:
  rms(total) = 0.43757E-03    rms(broyden)= 0.40684E-03
  rms(prec ) = 0.45382E-03
  weight for this iteration     100.00

 Free energy of the ion-electron system (eV)
  ---------------------------------------------------
  alpha Z        PSCENC =      6118.73324990
  Ewald energy   TEWEN  =   -103821.91028714
  -Hartree energ DENC   =    -64820.52547414
  -exchange      EXHF   =         0.00000000
  -V(xc)+E(xc)   XCENC  =      8966.16554704
  PAW double counting   =    196647.34777044  -197650.90386292
  entropy T*S    EENTRO =        -0.00000000
  eigenvalues    EBANDS =    -25774.09000273
  atomic energy  EATOM  =    178577.25249613
  Solvation  Ediel_sol  =         0.00000000
  ---------------------------------------------------
  free energy    TOTEN  =     -1757.93056342 eV

  energy without entropy =    -1757.93056342  energy(sigma->0) =    -1757.93056342


--------------------------------------------------------------------------------------------------------




--------------------------------------- Iteration      1(   2)  ---------------------------------------


    POTLOK:  cpu time    0.3006: real time    0.3009
    SETDIJ:  cpu time    1.4023: real time    1.4033
     EDDAV:  cpu time   99.1378: real time   99.9514
       DOS:  cpu time    0.0019: real time    0.0019
    --------------------------------------------
      LOOP:  cpu time  100.8425: real time  101.6575

 eigenvalue-minimisations  : 15720
 total energy-change (2. order) : 0.8477946E-07  (-0.1711735E-06)
 number of electron    1923.0000033 magnetization       1.0000000
 augmentation part      496.8083093 magnetization       0.5823145

 Free energy of the ion-electron system (eV)
  ---------------------------------------------------
  alpha Z        PSCENC =      6118.73324990
  Ewald energy   TEWEN  =   -103821.91028714
  -Hartree energ DENC   =    -64820.52941997
  -exchange      EXHF   =         0.00000000
  -V(xc)+E(xc)   XCENC  =      8966.16544943
  PAW double counting   =    196647.28304808  -197650.83865096
  entropy T*S    EENTRO =        -0.00000000
  eigenvalues    EBANDS =    -25774.08644880
  atomic energy  EATOM  =    178577.25249613
  Solvation  Ediel_sol  =         0.00000000
  ---------------------------------------------------
  free energy    TOTEN  =     -1757.93056333 eV

  energy without entropy =    -1757.93056333  energy(sigma->0) =    -1757.93056333


--------------------------------------------------------------------------------------------------------




 average (electrostatic) potential at core
  the test charge radii are     0.7079  1.0397  0.7215  0.7167
  (the norm of the test charge is              1.0000)
       1 -63.4080       2 -58.4959       3 -58.8597       4 -58.8026       5 -58.8801
       6 -58.8270       7 -59.7643       8 -58.5308       9 -58.7202      10 -58.8904
      11 -58.6422      12 -58.9283      13 -58.8557      14 -58.8480      15 -58.9321
      16 -58.7752      17 -58.7239      18 -58.8689      19 -59.5195      20 -58.6234
      21 -58.9041      22 -58.6363      23 -59.4065      24 -58.9108      25 -58.9128
      26 -59.0968      27 -58.7246      28 -58.7034      29 -58.8912      30 -56.9947
      31 -58.9856      32 -59.4602      33 -58.8158      34 -58.8591      35 -58.8730
      36 -58.7193      37 -58.4491      38 -58.7097      39 -59.2016      40 -58.7266
      41 -58.9309      42 -58.8532      43 -58.8983      44 -58.7539      45 -58.6225
      46 -59.1382      47 -58.8732      48 -58.8560      49 -58.8740      50 -58.7650
      51 -58.6898      52 -58.7006      53 -58.8412      54 -58.8546      55 -59.2355
      56 -58.9108      57 -59.0629      58 -58.7420      59 -58.7678      60 -58.7740
      61 -58.7277      62 -58.6494      63 -58.9325      64 -59.1622      65 -58.9211
      66 -74.1561      67 -74.0075      68 -73.8453      69 -73.8612      70 -73.8236
      71 -73.8724      72 -74.0258      73 -74.2445      74 -74.5398      75 -73.9672
      76 -74.0172      77 -73.9229      78 -73.9814      79 -74.0218      80 -74.2929
      81 -74.0525      82 -73.9030      83 -73.8854      84 -74.1612      85 -73.9414
      86 -73.8966      87 -74.2099      88 -74.0974      89 -73.8799      90 -73.8328
      91 -74.0155      92 -74.1213      93 -74.5678      94 -74.1811      95 -74.2704
      96 -73.9549      97 -73.9590      98 -73.9798      99 -74.0727     100 -74.3323
     101 -74.0029     102 -73.8219     103 -73.9138     104 -73.9810     105 -74.2225
     106 -73.9115     107 -74.0066     108 -74.1335     109 -73.9116     110 -74.0353
     111 -74.1995     112 -74.7846     113 -74.0624     114 -74.0763     115 -74.0943
     116 -73.9900     117 -73.9332     118 -73.7854     119 -74.2366     120 -73.8512
     121 -74.0038     122 -74.2849     123 -74.0171     124 -74.4723     125 -74.0271
     126 -74.2017     127 -73.8279     128 -73.9693     129 -74.0505     130 -78.3851
     131 -78.3821     132 -79.1333     133 -79.4965     134 -79.7489     135 -78.2857
     136 -78.2456     137 -78.9857     138 -78.9371     139 -79.7982     140 -79.4753
     141 -79.0954     142 -79.0308     143 -79.3122     144 -79.5551     145 -79.3562
     146 -79.1225     147 -78.4008     148 -78.3845     149 -79.3717     150 -79.3980
     151 -79.2055     152 -79.0802     153 -79.0087     154 -78.6031     155 -78.5791
     156 -78.4152     157 -78.3694     158 -78.8088     159 -78.7785     160 -78.4301
     161 -78.4443     162 -78.3886     163 -78.3326     164 -79.3168     165 -78.5307
     166 -78.5497     167 -78.3388     168 -78.2901     169 -79.2153     170 -79.0488
     171 -78.3605     172 -79.4512     173 -78.3255     174 -78.3997     175 -79.8046
     176 -78.2941     177 -78.9182     178 -78.3264     179 -78.8721     180 -79.0077
     181 -78.3576     182 -78.8677     183 -78.3577     184 -79.3499     185 -78.9911
     186 -79.1164     187 -78.3714     188 -79.1687     189 -78.9762     190 -79.0208
     191 -79.7245     192 -78.2874     193 -79.5640     194 -78.2138     195 -78.5027
     196 -79.0059     197 -78.4314     198 -79.0946     199 -79.0665     200 -78.9062
     201 -79.0190     202 -79.3402     203 -78.8684     204 -79.0123     205 -78.8554
     206 -78.4242     207 -78.4961     208 -79.1639     209 -79.0145     210 -78.4611
     211 -78.5902     212 -78.2728     213 -79.2558     214 -78.2884     215 -79.0788
     216 -78.3474     217 -78.3303     218 -79.1737     219 -78.9588     220 -78.9442
     221 -79.1915     222 -79.2632     223 -79.3947     224 -79.1345     225 -79.1670
     226 -78.9962     227 -79.0739     228 -78.9797     229 -79.0335     230 -78.4864
     231 -79.1331     232 -78.4540     233 -79.0326     234 -78.3275     235 -78.3339
     236 -79.3731     237 -79.3142     238 -79.2317     239 -78.8853     240 -79.1040
     241 -78.8539     242 -79.4380     243 -79.4291     244 -79.2178     245 -78.8231
     246 -78.8728     247 -79.3574     248 -79.0951     249 -79.3793     250 -79.1577
     251 -78.8914     252 -79.0420     253 -78.9239     254 -79.4448     255 -78.9942
     256 -79.5176     257 -79.0446
 
 
 
 E-fermi :  -0.6892     XC(G=0):  -9.0617     alpha+bet : -7.7421


 spin component 1

 k-point     1 :       0.2500    0.2500    0.2500
  band No.  band energies     occupation 
      1     -44.0688      1.00000
      2     -35.7646      1.00000
      3     -35.7535      1.00000
      4     -35.5697      1.00000
      5     -35.4912      1.00000
      6     -35.4807      1.00000
      7     -35.4200      1.00000
      8     -35.4182      1.00000
      9     -35.4150      1.00000
     10     -35.3349      1.00000
     11     -35.2784      1.00000
     12     -35.2612      1.00000
     13     -35.2235      1.00000
     14     -35.2227      1.00000
     15     -35.2173      1.00000
     16     -35.1906      1.00000
     17     -35.1314      1.00000
     18     -35.1307      1.00000
     19     -35.1132      1.00000
     20     -35.0770      1.00000
     21     -35.0761      1.00000
     22     -35.0482      1.00000
     23     -35.0287      1.00000
     24     -35.0224      1.00000
     25     -35.0022      1.00000
     26     -34.9949      1.00000
     27     -34.9836      1.00000
     28     -34.9774      1.00000
     29     -34.9682      1.00000
     30     -34.9592      1.00000
     31     -34.9478      1.00000
     32     -34.9464      1.00000
     33     -34.9444      1.00000
     34     -34.9407      1.00000
     35     -34.9381      1.00000
     36     -34.9341      1.00000
     37     -34.9280      1.00000
     38     -34.9241      1.00000
     39     -34.9227      1.00000
     40     -34.9185      1.00000
     41     -34.9178      1.00000
     42     -34.9135      1.00000
     43     -34.9134      1.00000
     44     -34.9052      1.00000
     45     -34.9006      1.00000
     46     -34.8972      1.00000
     47     -34.8867      1.00000
     48     -34.8859      1.00000
     49     -34.8828      1.00000
     50     -34.8814      1.00000
     51     -34.8763      1.00000
     52     -34.8762      1.00000
     53     -34.8670      1.00000
     54     -34.8603      1.00000
     55     -34.8571      1.00000
     56     -34.8543      1.00000
     57     -34.8540      1.00000
     58     -34.8511      1.00000
     59     -34.8439      1.00000
     60     -34.8375      1.00000
     61     -34.8299      1.00000
     62     -34.8212      1.00000
     63     -34.8209      1.00000
     64     -34.8197      1.00000
     65     -34.8196      1.00000
     66     -34.8195      1.00000
     67     -34.8181      1.00000
     68     -34.8133      1.00000
     69     -34.8129      1.00000
     70     -34.7909      1.00000
     71     -34.7899      1.00000
     72     -34.7823      1.00000
     73     -34.7811      1.00000
     74     -34.7784      1.00000
     75     -34.7759      1.00000
     76     -34.7732      1.00000
     77     -34.7728      1.00000
     78     -34.7680      1.00000
     79     -34.7655      1.00000
     80     -34.7642      1.00000
     81     -34.7628      1.00000
     82     -34.7620      1.00000
     83     -34.7617      1.00000
     84     -34.7593      1.00000
     85     -34.7582      1.00000
     86     -34.7579      1.00000
     87     -34.7561      1.00000
     88     -34.7521      1.00000
     89     -34.7513      1.00000
     90     -34.7509      1.00000
     91     -34.7504      1.00000
     92     -34.7485      1.00000
     93     -34.7462      1.00000
     94     -34.7458      1.00000
     95     -34.7452      1.00000
     96     -34.7443      1.00000
     97     -34.7431      1.00000
     98     -34.7419      1.00000
     99     -34.7349      1.00000
    100     -34.7338      1.00000
    101     -34.7279      1.00000
    102     -34.7259      1.00000
    103     -34.7249      1.00000
    104     -34.7242      1.00000
    105     -34.7225      1.00000
    106     -34.7206      1.00000
    107     -34.7166      1.00000
    108     -34.7160      1.00000
    109     -34.7139      1.00000
    110     -34.7115      1.00000
    111     -34.7106      1.00000
    112     -34.7081      1.00000
    113     -34.7062      1.00000
    114     -34.7053      1.00000
    115     -34.7018      1.00000
    116     -34.7007      1.00000
    117     -34.7006      1.00000
    118     -34.7000      1.00000
    119     -34.6970      1.00000
    120     -34.6920      1.00000
    121     -34.6917      1.00000
    122     -34.6869      1.00000
    123     -34.6835      1.00000
    124     -34.6818      1.00000
    125     -34.6769      1.00000
    126     -34.6740      1.00000
    127     -34.6697      1.00000
    128     -34.6690      1.00000
    129     -34.6673      1.00000
    130     -34.6663      1.00000
    131     -34.6648      1.00000
    132     -34.6629      1.00000
    133     -34.6534      1.00000
    134     -34.6500      1.00000
    135     -34.6459      1.00000
    136     -34.6439      1.00000
    137     -34.6402      1.00000
    138     -34.6369      1.00000
    139     -34.6358      1.00000
    140     -34.6332      1.00000
    141     -34.6327      1.00000
    142     -34.6301      1.00000
    143     -34.6295      1.00000
    144     -34.6271      1.00000
    145     -34.6258      1.00000
    146     -34.6215      1.00000
    147     -34.6173      1.00000
    148     -34.6137      1.00000
    149     -34.6121      1.00000
    150     -34.6060      1.00000
    151     -34.6015      1.00000
    152     -34.6011      1.00000
    153     -34.5942      1.00000
    154     -34.5940      1.00000
    155     -34.5865      1.00000
    156     -34.5836      1.00000
    157     -34.5816      1.00000
    158     -34.5692      1.00000
    159     -34.5682      1.00000
    160     -34.5657      1.00000
    161     -34.5652      1.00000
    162     -34.5622      1.00000
    163     -34.5592      1.00000
    164     -34.5571      1.00000
    165     -34.5496      1.00000
    166     -34.5459      1.00000
    167     -34.5457      1.00000
    168     -34.5427      1.00000
[...]
   81        1.574   3.458   0.000   5.032
   82        1.575   3.459   0.000   5.033
   83        1.574   3.458   0.000   5.032
   84        1.567   3.485   0.000   5.052
   85        1.575   3.461   0.000   5.037
   86        1.575   3.465   0.000   5.040
   87        1.576   3.459   0.000   5.035
   88        1.575   3.462   0.000   5.036
   89        1.575   3.459   0.000   5.034
   90        1.575   3.455   0.000   5.031
   91        1.574   3.457   0.000   5.032
   92        1.568   3.457   0.000   5.025
   93        1.577   3.466   0.000   5.043
   94        1.577   3.469   0.000   5.045
   95        1.576   3.470   0.000   5.046
   96        1.575   3.461   0.000   5.036
   97        1.575   3.463   0.000   5.038
   98        1.575   3.459   0.000   5.034
   99        1.575   3.461   0.000   5.036
  100        1.576   3.456   0.000   5.032
  101        1.575   3.456   0.000   5.031
  102        1.575   3.457   0.000   5.032
  103        1.575   3.457   0.000   5.032
  104        1.574   3.458   0.000   5.032
  105        1.577   3.468   0.000   5.045
  106        1.574   3.458   0.000   5.032
  107        1.575   3.458   0.000   5.033
  108        1.576   3.471   0.000   5.047
  109        1.574   3.458   0.000   5.032
  110        1.575   3.459   0.000   5.034
  111        1.576   3.471   0.000   5.047
  112        1.577   3.456   0.000   5.033
  113        1.576   3.473   0.000   5.049
  114        1.578   3.467   0.000   5.045
  115        1.574   3.462   0.000   5.037
  116        1.575   3.460   0.000   5.035
  117        1.575   3.459   0.000   5.034
  118        1.576   3.461   0.000   5.037
  119        1.576   3.473   0.000   5.049
  120        1.575   3.454   0.000   5.028
  121        1.574   3.459   0.000   5.033
  122        1.577   3.465   0.000   5.041
  123        1.577   3.471   0.000   5.048
  124        1.576   3.466   0.000   5.042
  125        1.576   3.474   0.000   5.050
  126        1.575   3.469   0.000   5.044
  127        1.575   3.457   0.000   5.032
  128        1.574   3.459   0.000   5.033
  129        1.576   3.466   0.000   5.042
  130        1.737   4.368   0.000   6.105
  131        1.736   4.369   0.000   6.105
  132        1.737   4.378   0.000   6.116
  133        1.738   4.382   0.000   6.120
  134        1.738   4.380   0.000   6.117
  135        1.737   4.365   0.000   6.102
  136        1.736   4.364   0.000   6.100
  137        1.738   4.379   0.000   6.118
  138        1.738   4.380   0.000   6.118
  139        1.739   4.379   0.000   6.118
  140        1.739   4.380   0.000   6.118
  141        1.738   4.377   0.000   6.115
  142        1.737   4.377   0.000   6.114
  143        1.735   4.384   0.000   6.119
  144        1.738   4.383   0.000   6.121
  145        1.738   4.379   0.000   6.117
  146        1.737   4.378   0.000   6.115
  147        1.736   4.368   0.000   6.105
  148        1.736   4.367   0.000   6.104
  149        1.739   4.378   0.000   6.118
  150        1.738   4.383   0.000   6.121
  151        1.738   4.373   0.000   6.111
  152        1.737   4.377   0.000   6.114
  153        1.737   4.380   0.000   6.118
  154        1.736   4.364   0.000   6.101
  155        1.737   4.368   0.000   6.105
  156        1.736   4.368   0.000   6.104
  157        1.737   4.365   0.000   6.101
  158        1.738   4.375   0.000   6.113
  159        1.738   4.375   0.000   6.113
  160        1.736   4.367   0.000   6.103
  161        1.736   4.368   0.000   6.104
  162        1.736   4.369   0.000   6.105
  163        1.736   4.366   0.000   6.103
  164        1.737   4.377   0.000   6.114
  165        1.736   4.366   0.000   6.102
  166        1.736   4.366   0.000   6.102
  167        1.736   4.367   0.000   6.103
  168        1.736   4.366   0.000   6.103
  169        1.738   4.372   0.000   6.110
  170        1.738   4.375   0.000   6.112
  171        1.737   4.368   0.000   6.105
  172        1.737   4.384   0.000   6.121
  173        1.737   4.367   0.000   6.104
  174        1.736   4.362   0.000   6.097
  175        1.739   4.377   0.000   6.116
  176        1.737   4.364   0.000   6.101
  177        1.737   4.376   0.000   6.113
  178        1.736   4.364   0.000   6.100
  179        1.738   4.374   0.000   6.111
  180        1.738   4.375   0.000   6.113
  181        1.736   4.365   0.000   6.101
  182        1.738   4.376   0.000   6.113
  183        1.737   4.365   0.000   6.102
  184        1.737   4.376   0.000   6.113
  185        1.737   4.379   0.000   6.116
  186        1.737   4.378   0.000   6.115
  187        1.736   4.365   0.000   6.102
  188        1.738   4.374   0.000   6.112
  189        1.738   4.379   0.000   6.117
  190        1.738   4.379   0.000   6.117
  191        1.739   4.380   0.000   6.119
  192        1.737   4.367   0.000   6.104
  193        1.738   4.384   0.000   6.122
  194        1.736   4.365   0.000   6.102
  195        1.737   4.364   0.000   6.101
  196        1.737   4.379   0.000   6.116
  197        1.736   4.363   0.000   6.099
  198        1.737   4.379   0.000   6.116
  199        1.737   4.375   0.000   6.113
  200        1.738   4.377   0.000   6.115
  201        1.738   4.377   0.000   6.114
  202        1.738   4.374   0.000   6.112
  203        1.737   4.377   0.000   6.115
  204        1.738   4.374   0.000   6.112
  205        1.737   4.377   0.000   6.114
  206        1.736   4.366   0.000   6.103
  207        1.737   4.366   0.000   6.102
  208        1.737   4.381   0.000   6.118
  209        1.738   4.370   0.000   6.108
  210        1.736   4.368   0.000   6.104
  211        1.737   4.368   0.000   6.105
  212        1.736   4.367   0.000   6.103
  213        1.739   4.373   0.000   6.112
  214        1.736   4.365   0.000   6.102
  215        1.738   4.377   0.000   6.115
  216        1.736   4.366   0.000   6.102
  217        1.736   4.362   0.000   6.099
  218        1.737   4.375   0.000   6.112
  219        1.738   4.374   0.000   6.112
  220        1.738   4.377   0.000   6.114
  221        1.738   4.378   0.000   6.116
  222        1.737   4.375   0.000   6.113
  223        1.737   4.379   0.000   6.116
  224        1.738   4.375   0.000   6.113
  225        1.737   4.374   0.000   6.111
  226        1.738   4.378   0.000   6.116
  227        1.737   4.379   0.000   6.115
  228        1.738   4.377   0.000   6.115
  229        1.737   4.378   0.000   6.115
  230        1.736   4.367   0.000   6.103
  231        1.738   4.370   0.000   6.107
  232        1.736   4.367   0.000   6.104
  233        1.738   4.380   0.000   6.117
  234        1.736   4.366   0.000   6.103
  235        1.737   4.366   0.000   6.103
  236        1.739   4.386   0.000   6.124
  237        1.739   4.381   0.000   6.120
  238        1.737   4.376   0.000   6.113
  239        1.738   4.373   0.000   6.111
  240        1.737   4.380   0.000   6.117
  241        1.738   4.374   0.000   6.111
  242        1.739   4.378   0.000   6.118
  243        1.738   4.381   0.000   6.119
  244        1.737   4.377   0.000   6.115
  245        1.738   4.376   0.000   6.114
  246        1.738   4.376   0.000   6.114
  247        1.737   4.382   0.000   6.119
  248        1.737   4.376   0.000   6.113
  249        1.738   4.379   0.000   6.117
  250        1.738   4.372   0.000   6.110
  251        1.738   4.379   0.000   6.117
  252        1.737   4.379   0.000   6.116
  253        1.738   4.379   0.000   6.117
  254        1.737   4.383   0.000   6.120
  255        1.738   4.377   0.000   6.115
  256        1.738   4.378   0.000   6.116
  257        1.738   4.376   0.000   6.114
--------------------------------------------------
tot        345.3081194.279 111.9301651.517
 


 magnetization (x)
 
# of ion       s       p       d       tot
------------------------------------------
    1       -0.000  -0.000   0.000  -0.000
    2       -0.000  -0.000  -0.000  -0.000
    3       -0.000  -0.000   0.000   0.000
    4       -0.000  -0.000  -0.000  -0.000
    5       -0.000  -0.000   0.000  -0.000
    6        0.000  -0.000   0.000   0.000
    7        0.000   0.000   0.000   0.000
    8       -0.000  -0.000   0.000   0.000
    9        0.000   0.000   0.000   0.000
   10       -0.000  -0.000  -0.000  -0.000
   11       -0.000  -0.000  -0.000  -0.000
   12       -0.000  -0.000  -0.000  -0.000
   13       -0.000  -0.000  -0.000  -0.000
   14       -0.000  -0.000   0.004   0.003
   15        0.000  -0.000   0.000   0.000
   16       -0.000  -0.000   0.001   0.000
   17       -0.000  -0.000   0.000   0.000
   18        0.000   0.000   0.001   0.001
   19        0.000   0.000   0.000   0.000
   20       -0.000  -0.000  -0.000  -0.000
   21       -0.000  -0.000  -0.000  -0.000
   22        0.000   0.000   0.003   0.003
   23        0.000   0.000   0.007   0.007
   24        0.000   0.000   0.000   0.000
   25       -0.000  -0.000   0.000   0.000
   26       -0.000  -0.000   0.000   0.000
   27        0.000   0.000   0.000   0.000
   28       -0.000  -0.000  -0.000  -0.000
   29       -0.000  -0.000  -0.000  -0.000
   30        0.005   0.006   0.899   0.911
   31        0.000   0.000   0.000   0.000
   32       -0.000  -0.000   0.000   0.000
   33        0.000   0.000   0.000   0.000
   34       -0.000  -0.000   0.000   0.000
   35       -0.000  -0.000   0.000   0.000
   36       -0.000  -0.000   0.000   0.000
   37       -0.000  -0.000  -0.000  -0.000
   38       -0.000  -0.000   0.000   0.000
   39       -0.000  -0.000   0.000   0.000
   40       -0.000  -0.000  -0.000  -0.000
   41       -0.000  -0.000   0.000   0.000
   42       -0.000  -0.000   0.000   0.000
   43        0.000  -0.000   0.000   0.000
   44       -0.000  -0.000  -0.000  -0.000
   45       -0.000  -0.000  -0.000  -0.000
   46       -0.000  -0.000  -0.000  -0.000
   47       -0.000  -0.000   0.000   0.000
   48       -0.000  -0.000  -0.000  -0.000
   49       -0.000  -0.000   0.000   0.000
   50        0.000   0.000   0.001   0.001
   51        0.000  -0.000   0.000   0.000
   52       -0.000  -0.000  -0.000  -0.000
   53       -0.000  -0.000  -0.000  -0.000
   54        0.000   0.000   0.004   0.004
   55        0.000   0.000   0.002   0.002
   56        0.000   0.000   0.000   0.000
   57       -0.000  -0.000   0.000   0.000
   58       -0.000  -0.000   0.005   0.005
   59        0.000  -0.000   0.000   0.000
   60       -0.000  -0.000   0.000   0.000
   61       -0.000  -0.000  -0.000  -0.000
   62        0.000   0.001   0.046   0.047
   63        0.000   0.000   0.000   0.000
   64       -0.000  -0.000  -0.000  -0.000
   65       -0.000  -0.000   0.000   0.000
   66        0.000   0.000   0.000   0.000
   67       -0.000  -0.000   0.000  -0.000
   68        0.000   0.000   0.000   0.000
   69       -0.000  -0.000   0.000  -0.000
   70       -0.000  -0.000   0.000  -0.000
   71        0.000   0.000   0.000   0.000
   72        0.000   0.000   0.000   0.000
   73       -0.000  -0.000   0.000  -0.000
   74       -0.000  -0.000   0.000  -0.000
   75       -0.000  -0.000   0.000  -0.000
   76        0.000  -0.000   0.000  -0.000
   77        0.000   0.000   0.000   0.000
   78       -0.000  -0.000   0.000  -0.000
   79       -0.000  -0.000   0.000  -0.000
   80        0.000  -0.000   0.000  -0.000
   81       -0.000  -0.000   0.000  -0.000
   82       -0.000  -0.000   0.000  -0.000
   83        0.000   0.000   0.000   0.000
   84       -0.000  -0.001   0.000  -0.001
   85       -0.000   0.000   0.000   0.000
   86       -0.000   0.000   0.000   0.000
   87       -0.000  -0.000   0.000  -0.000
   88        0.000  -0.000   0.000  -0.000
   89       -0.000  -0.000   0.000  -0.000
   90       -0.000  -0.000   0.000  -0.000
   91       -0.000  -0.000   0.000  -0.000
   92       -0.000  -0.000   0.000  -0.000
   93       -0.000  -0.001   0.000  -0.001
   94       -0.000  -0.000   0.000  -0.000
   95       -0.000  -0.000   0.000  -0.000
   96       -0.000  -0.000   0.000  -0.000
   97        0.000  -0.000   0.000  -0.000
   98       -0.001  -0.022   0.000  -0.024
   99       -0.000  -0.000   0.000  -0.000
  100       -0.000  -0.000   0.000  -0.000
  101       -0.000  -0.000   0.000  -0.000
  102       -0.000  -0.000   0.000  -0.000
  103        0.000  -0.000   0.000  -0.000
  104       -0.000  -0.000   0.000  -0.000
  105       -0.000  -0.000   0.000  -0.000
  106       -0.000  -0.000   0.000  -0.000
  107       -0.000  -0.000   0.000  -0.000
  108        0.000   0.000   0.000   0.000
  109       -0.000  -0.000   0.000  -0.000
  110       -0.000  -0.000   0.000  -0.000
  111       -0.000   0.000   0.000   0.000
  112       -0.000  -0.000   0.000  -0.000
  113       -0.000  -0.000   0.000  -0.000
  114       -0.001  -0.015   0.000  -0.016
  115       -0.000  -0.000   0.000  -0.000
  116        0.000  -0.000   0.000  -0.000
  117       -0.000  -0.000   0.000  -0.000
  118        0.000   0.000   0.000   0.000
  119       -0.000   0.000   0.000   0.000
  120       -0.000  -0.000   0.000  -0.000
  121       -0.000  -0.000   0.000  -0.000
  122       -0.000  -0.000   0.000  -0.000
  123       -0.000  -0.000   0.000  -0.000
  124       -0.000  -0.000   0.000  -0.000
  125        0.000   0.000   0.000   0.000
  126       -0.000  -0.000   0.000  -0.000
  127       -0.000  -0.000   0.000  -0.000
  128       -0.000  -0.000   0.000  -0.000
  129       -0.000  -0.000   0.000  -0.000
  130       -0.000  -0.000   0.000  -0.000
  131       -0.000  -0.000   0.000  -0.000
  132       -0.000  -0.000   0.000  -0.000
  133       -0.000  -0.000   0.000  -0.000
  134       -0.000  -0.000   0.000  -0.000
  135        0.000  -0.000   0.000  -0.000
  136        0.000   0.000   0.000   0.000
  137       -0.000  -0.000   0.000  -0.000
  138       -0.000  -0.000   0.000  -0.000
  139       -0.000  -0.000   0.000  -0.000
  140       -0.000  -0.000   0.000  -0.000
  141       -0.000  -0.000   0.000  -0.000
  142        0.000   0.000   0.000   0.000
  143       -0.000   0.001   0.000   0.001
  144        0.000  -0.000   0.000  -0.000
  145       -0.000  -0.000   0.000  -0.000
  146       -0.000   0.000   0.000   0.000
  147       -0.000  -0.000   0.000  -0.000
  148        0.000   0.000   0.000   0.000
  149       -0.000   0.001   0.000   0.000
  150        0.000   0.000   0.000   0.000
  151       -0.000  -0.000   0.000  -0.000
  152       -0.000  -0.000   0.000  -0.000
  153       -0.000  -0.000   0.000  -0.000
  154       -0.000  -0.000   0.000  -0.000
  155       -0.000  -0.000   0.000  -0.000
  156       -0.000  -0.000   0.000  -0.000
  157       -0.000  -0.000   0.000  -0.000
  158       -0.000  -0.000   0.000  -0.000
  159        0.000  -0.000   0.000  -0.000
  160       -0.000  -0.000   0.000  -0.000
  161       -0.000  -0.000   0.000  -0.000
  162       -0.000  -0.000   0.000  -0.000
  163        0.000   0.000   0.000   0.000
  164       -0.000  -0.000   0.000  -0.000
  165       -0.000  -0.000   0.000  -0.000
  166       -0.000  -0.000   0.000  -0.000
  167        0.000   0.000   0.000   0.000
  168       -0.000  -0.000   0.000  -0.000
  169       -0.000  -0.000   0.000  -0.000
  170        0.000  -0.000   0.000  -0.000
  171       -0.000  -0.000   0.000  -0.000
  172        0.000  -0.000   0.000   0.000
  173       -0.000  -0.000   0.000  -0.000
  174        0.000  -0.000   0.000  -0.000
  175        0.000  -0.000   0.000  -0.000
  176       -0.000  -0.000   0.000  -0.000
  177       -0.000  -0.000   0.000  -0.000
  178       -0.000  -0.000   0.000  -0.000
  179       -0.000   0.000   0.000   0.000
  180       -0.000  -0.000   0.000  -0.000
  181       -0.000  -0.000   0.000  -0.000
  182       -0.000  -0.000   0.000  -0.000
  183       -0.000  -0.000   0.000  -0.000
  184        0.000  -0.000   0.000  -0.000
  185        0.000  -0.000   0.000  -0.000
  186        0.000   0.000   0.000   0.000
  187       -0.000  -0.000   0.000  -0.000
  188       -0.000  -0.000   0.000  -0.000
  189        0.000   0.000   0.000   0.000
  190       -0.000  -0.000   0.000  -0.000
  191       -0.000  -0.000   0.000  -0.000
  192       -0.000  -0.000   0.000  -0.000
  193       -0.000  -0.000   0.000  -0.000
  194       -0.000  -0.000   0.000  -0.000
  195       -0.000  -0.000   0.000  -0.000
  196       -0.000  -0.000   0.000  -0.000
  197       -0.000  -0.000   0.000  -0.000
  198       -0.000  -0.000   0.000  -0.000
  199        0.000   0.000   0.000   0.000
  200       -0.000  -0.000   0.000  -0.000
  201       -0.000  -0.000   0.000  -0.000
  202       -0.000  -0.000   0.000  -0.000
  203        0.000  -0.000   0.000  -0.000
  204       -0.000  -0.000   0.000  -0.000
  205       -0.000   0.002   0.000   0.001
  206       -0.000  -0.000   0.000  -0.000
  207       -0.000  -0.000   0.000  -0.000
  208       -0.000  -0.000   0.000  -0.000
  209        0.000  -0.000   0.000  -0.000
  210       -0.000  -0.000   0.000  -0.000
  211       -0.000  -0.000   0.000  -0.000
  212       -0.000  -0.000   0.000  -0.000
  213       -0.000  -0.000   0.000  -0.000
  214       -0.000  -0.000   0.000  -0.000
  215       -0.000  -0.000   0.000  -0.000
  216       -0.000  -0.000   0.000  -0.000
  217       -0.000  -0.000   0.000  -0.000
  218        0.000  -0.000   0.000  -0.000
  219       -0.000  -0.000   0.000  -0.000
  220       -0.000  -0.000   0.000  -0.000
  221        0.000   0.000   0.000   0.000
  222       -0.000  -0.000   0.000  -0.000
  223       -0.000  -0.000   0.000  -0.000
  224        0.000  -0.000   0.000  -0.000
  225       -0.000  -0.000   0.000  -0.000
  226       -0.000  -0.000   0.000  -0.000
  227       -0.000  -0.000   0.000  -0.000
  228       -0.000  -0.000   0.000  -0.000
  229       -0.000  -0.004   0.000  -0.005
  230       -0.000  -0.000   0.000  -0.000
  231       -0.000  -0.000   0.000  -0.000
  232       -0.000  -0.000   0.000  -0.000
  233       -0.000  -0.000   0.000  -0.000
  234        0.000  -0.000   0.000  -0.000
  235        0.000   0.000   0.000   0.000
  236       -0.000  -0.000   0.000  -0.000
  237       -0.000  -0.000   0.000  -0.000
  238       -0.000  -0.000   0.000  -0.000
  239       -0.000  -0.000   0.000  -0.000
  240       -0.000  -0.000   0.000  -0.000
  241       -0.000  -0.000   0.000  -0.000
  242       -0.000  -0.000   0.000  -0.000
  243       -0.000  -0.000   0.000  -0.000
  244       -0.000  -0.000   0.000  -0.000
  245       -0.000  -0.000   0.000  -0.000
  246       -0.000  -0.000   0.000  -0.000
  247       -0.000  -0.000   0.000  -0.000
  248       -0.000  -0.000   0.000  -0.000
  249       -0.000  -0.000   0.000  -0.000
  250       -0.000  -0.000   0.000  -0.000
  251       -0.000  -0.000   0.000  -0.000
  252       -0.000  -0.000   0.000  -0.000
  253       -0.000  -0.000   0.000  -0.000
  254       -0.000  -0.000   0.000  -0.001
  255       -0.000  -0.000   0.000  -0.000
  256        0.000  -0.000   0.000  -0.000
  257       -0.000  -0.000   0.000  -0.000
--------------------------------------------------
tot          0.002  -0.038   0.974   0.939
 

 total amount of memory used by VASP MPI-rank0   291476. kBytes
=======================================================================

   base      :      30000. kBytes
   nonlr-proj:      49441. kBytes
   fftplans  :      27976. kBytes
   grid      :      34041. kBytes
   one-center:       1026. kBytes
   wavefun   :     148992. kBytes
 
  
  
 General timing and accounting informations for this job:
 ========================================================
  
                  Total CPU time used (sec):      831.699
                            User time (sec):      498.307
                          System time (sec):      333.391
                         Elapsed time (sec):      857.251
  
                   Maximum memory used (kb):      621336.
                   Average memory used (kb):           0.
  
                          Minor page faults:        79289
                          Major page faults:            6
                 Voluntary context switches:        16711
