 vasp.5.4.4.18Apr17-6-g9f103f2a35 (build Apr 30 2017 20:10:35) complex          
  
 executed on             LinuxIFC date 2017.08.17  14:49:41
 running on  128 total cores
 distrk:  each k-point on  128 cores,    1 groups
 distr:  one band on NCORES_PER_BAND=   8 cores,   16 groups


--------------------------------------------------------------------------------------------------------


 INCAR:
 POTCAR:   PAW_PBE Ti_pv 07Sep2000                
 POTCAR:   PAW_PBE O 08Apr2002                    
 POTCAR:    PAW_PBE F 08Apr2002                   
 POTCAR:   PAW_PBE Ti_pv 07Sep2000                
   VRHFIN =Ti: d3 s1                                                            
   LEXCH  = PE                                                                  
   EATOM  =  1042.3781 eV,   76.6126 Ry                                         
                                                                                
   TITEL  = PAW_PBE Ti_pv 07Sep2000                                             
   LULTRA =        F    use ultrasoft PP ?                                      
   IUNSCR =        1    unscreen: 0-lin 1-nonlin 2-no                           
   RPACOR =    2.200    partial core radius                                     
   POMASS =   47.880; ZVAL   =   10.000    mass and valenz                      
   RCORE  =    2.500    outmost cutoff radius                                   
   RWIGS  =    2.500; RWIGS  =    1.323    wigner-seitz radius (au A)           
   ENMAX  =  222.338; ENMIN  =  166.753 eV                                      
   RCLOC  =    1.701    cutoff for local pot                                    
   LCOR   =        T    correct aug charges                                     
   LPAW   =        T    paw PP                                                  
   EAUG   =  482.848                                                            
   DEXC   =    -.008                                                            
   RMAX   =    3.092    core radius for proj-oper                               
   RAUG   =    1.300    factor for augmentation sphere                          
   RDEP   =    2.538    radius for radial grids                                 
   QCUT   =   -4.042; QGAM   =    8.085    optimization parameters              
                                                                                
   Description                                                                  
     l     E      TYP  RCUT    TYP  RCUT                                        
     1   .000     23  2.300                                                     
     1  -.100     23  2.300                                                     
     2   .000     23  2.500                                                     
     2   .000     23  2.500                                                     
     0   .000     23  2.500                                                     
     0  1.500     23  2.500                                                     
     3   .000      7   .000                                                     
  local pseudopotential read in
  partial core-charges read in
  atomic valenz-charges read in
  non local Contribution for L=           1  read in
    real space projection operators read in
  non local Contribution for L=           1  read in
    real space projection operators read in
  non local Contribution for L=           2  read in
    real space projection operators read in
  non local Contribution for L=           2  read in
    real space projection operators read in
  non local Contribution for L=           0  read in
    real space projection operators read in
  non local Contribution for L=           0  read in
    real space projection operators read in
    PAW grid and wavefunctions read in
 
   number of l-projection  operators is LMAX  =           6
   number of lm-projection operators is LMMAX =          18
 
 POTCAR:   PAW_PBE O 08Apr2002                    
   VRHFIN =O: s2p4                                                              
   LEXCH  = PE                                                                  
   EATOM  =   432.3788 eV,   31.7789 Ry                                         
                                                                                
   TITEL  = PAW_PBE O 08Apr2002                                                 
   LULTRA =        F    use ultrasoft PP ?                                      
   IUNSCR =        0    unscreen: 0-lin 1-nonlin 2-no                           
   RPACOR =     .000    partial core radius                                     
   POMASS =   16.000; ZVAL   =    6.000    mass and valenz                      
   RCORE  =    1.520    outmost cutoff radius                                   
   RWIGS  =    1.550; RWIGS  =     .820    wigner-seitz radius (au A)           
   ENMAX  =  400.000; ENMIN  =  300.000 eV                                      
   ICORE  =        2    local potential                                         
   LCOR   =        T    correct aug charges                                     
   LPAW   =        T    paw PP                                                  
   EAUG   =  605.392                                                            
   DEXC   =     .000                                                            
   RMAX   =    2.264    core radius for proj-oper                               
   RAUG   =    1.300    factor for augmentation sphere                          
   RDEP   =    1.550    radius for radial grids                                 
   QCUT   =   -5.520; QGAM   =   11.041    optimization parameters              
                                                                                
   Description                                                                  
     l     E      TYP  RCUT    TYP  RCUT                                        
     0   .000     23  1.200                                                     
     0  -.700     23  1.200                                                     
     1   .000     23  1.520                                                     
     1   .600     23  1.520                                                     
     2   .000      7  1.500                                                     
  local pseudopotential read in
  atomic valenz-charges read in
  non local Contribution for L=           0  read in
    real space projection operators read in
  non local Contribution for L=           0  read in
    real space projection operators read in
  non local Contribution for L=           1  read in
    real space projection operators read in
  non local Contribution for L=           1  read in
    real space projection operators read in
    PAW grid and wavefunctions read in
 
   number of l-projection  operators is LMAX  =           4
   number of lm-projection operators is LMMAX =           8
 
 POTCAR:    PAW_PBE F 08Apr2002                   
   VRHFIN =F: s2p5                                                              
   LEXCH  = PE                                                                  
   EATOM  =   659.6475 eV,   48.4827 Ry                                         
                                                                                
   TITEL  = PAW_PBE F 08Apr2002                                                 
   LULTRA =        F    use ultrasoft PP ?                                      
   IUNSCR =        1    unscreen: 0-lin 1-nonlin 2-no                           
   RPACOR =    1.200    partial core radius                                     
   POMASS =   18.998; ZVAL   =    7.000    mass and valenz                      
   RCORE  =    1.520    outmost cutoff radius                                   
   RWIGS  =    1.500; RWIGS  =    0.794    wigner-seitz radius (au A)           
   ENMAX  =  400.000; ENMIN  =  300.000 eV                                      
   ICORE  =        2    local potential                                         
   LCOR   =        T    correct aug charges                                     
   LPAW   =        T    paw PP                                                  
   EAUG   =  613.614                                                            
   RMAX   =    1.555    core radius for proj-oper                               
   RAUG   =    1.300    factor for augmentation sphere                          
   RDEP   =    1.539    radius for radial grids                                 
   RDEPT  =    1.299    core radius for aug-charge                              
                                                                                
   Atomic configuration                                                         
    4 entries                                                                   
     n  l   j            E        occ.                                          
     1  0  0.50      -663.3661   2.0000                                         
     2  0  0.50       -29.8995   2.0000                                         
     2  1  0.50       -11.1114   5.0000                                         
     3  2  1.50       -10.8847   0.0000                                         
   Description                                                                  
     l       E           TYP  RCUT    TYP  RCUT                                 
     0    -29.8995018     23  1.200                                             
     0     -9.5240782     23  1.200                                             
     1    -11.1113914     23  1.520                                             
     1      1.3605826     23  1.520                                             
     2    -10.8846608      7  1.500                                             
  local pseudopotential read in
  partial core-charges read in
  partial kinetic energy density read in
  atomic valenz-charges read in
  non local Contribution for L=           0  read in
    real space projection operators read in
  non local Contribution for L=           0  read in
    real space projection operators read in
  non local Contribution for L=           1  read in
    real space projection operators read in
  non local Contribution for L=           1  read in
    real space projection operators read in
    PAW grid and wavefunctions read in
 
   number of l-projection  operators is LMAX  =           4
   number of lm-projection operators is LMMAX =           8
 
 Optimization of the real space projectors (new method)

 maximal supplied QI-value         = 15.12
 optimisation between [QCUT,QGAM] = [ 13.45, 27.06] = [ 50.69,205.06] Ry 
 Optimized for a Real-space Cutoff    1.49 Angstroem

   l    n(q)    QCUT    max X(q) W(low)/X(q) W(high)/X(q)  e(spline) 
   1     12    13.455     4.841    0.13E-05    0.83E-06    0.56E-07
   1     12    13.455     5.701    0.32E-04    0.25E-04    0.17E-06
   2     11    13.455     4.569    0.64E-05    0.34E-05    0.50E-07
   2     11    13.455    32.276    0.49E-04    0.38E-04    0.46E-06
   0     12    13.455    30.046    0.17E-04    0.41E-05    0.51E-07
   0     12    13.455    45.433    0.12E-04    0.27E-04    0.38E-06
 Optimization of the real space projectors (new method)

 maximal supplied QI-value         = 24.76
 optimisation between [QCUT,QGAM] = [ 13.37, 26.98] = [ 50.04,203.89] Ry 
 Optimized for a Real-space Cutoff    1.17 Angstroem

   l    n(q)    QCUT    max X(q) W(low)/X(q) W(high)/X(q)  e(spline) 
   0      9    13.368     4.192    0.20E-04    0.58E-05    0.56E-07
   0      9    13.368     8.473    0.60E-04    0.52E-04    0.21E-06
   1      9    13.368     2.474    0.22E-04    0.17E-04    0.28E-07
   1      9    13.368     3.912    0.94E-04    0.97E-04    0.20E-06
 Optimization of the real space projectors (new method)

 maximal supplied QI-value         = 24.76
 optimisation between [QCUT,QGAM] = [ 13.37, 26.98] = [ 50.04,203.89] Ry 
 Optimized for a Real-space Cutoff    1.17 Angstroem

   l    n(q)    QCUT    max X(q) W(low)/X(q) W(high)/X(q)  e(spline) 
   0      9    13.368    14.049    0.39E-04    0.34E-04    0.16E-06
   0      9    13.368     8.945    0.54E-04    0.47E-04    0.20E-06
   1      9    13.368     7.086    0.99E-04    0.10E-03    0.23E-06
   1      9    13.368     6.747    0.86E-04    0.89E-04    0.21E-06

 ----------------------------------------------------------------------------- 
|                                                                             |
|  ADVICE TO THIS USER RUNNING 'VASP/VAMP'   (HEAR YOUR MASTER'S VOICE ...):  |
|                                                                             |
|      You enforced a specific xc-type in the INCAR file,                     |
|      a different type was found on the POTCAR file                          |
|          I HOPE YOU KNOW, WHAT YOU ARE  DOING                               |
|                                                                             |
 ----------------------------------------------------------------------------- 

 PAW_PBE Ti_pv 07Sep2000                :
 energy of atom  1       EATOM=-1042.3781
 kinetic energy error for atom=    0.0006 (will be added to EATOM!!)
 PAW_PBE O 08Apr2002                    :
 energy of atom  2       EATOM= -432.3788
 kinetic energy error for atom=    0.0091 (will be added to EATOM!!)
  PAW_PBE F 08Apr2002                   :
 energy of atom  3       EATOM= -659.6475
 kinetic energy error for atom=    0.0140 (will be added to EATOM!!)
 
 
 POSCAR: Ti64 O64 F128                           
  positions in direct lattice
  velocities in cartesian coordinates
 exchange correlation table for  LEXCH =       14
   RHO(1)=    0.500       N(1)  =     2000
   RHO(2)=  100.500       N(2)  =     4000

 VTST: version 3.1, (03/28/14)

 CHAIN: initializing optimizer
 
 OPT: Using VASP QUASI-newton optimizer
 CHAIN: Read ICHAIN            0
 
 POSCAR: Ti64 O64 F128                           
  positions in direct lattice
  velocities in cartesian coordinates
 


--------------------------------------------------------------------------------------------------------


 ion  position               nearest neighbor table
   1  0.995  0.995  0.995- 117 1.87  67 1.88 102 1.89 170 2.02 129 2.04 211 2.04
   2  0.000  0.991  0.494- 118 1.81  66 1.82 171 1.94 192 1.95 130 2.01 212 2.09
   3  0.006  0.495  0.998-  88 1.83 116 1.86 137 1.93 131 1.98 193 2.02 213 2.02
   4  0.994  0.502  0.507-  65 1.82 103 1.83 214 1.93 172 2.00 222 2.00 136 2.03
   5  0.494  0.995  0.999- 100 1.83 120 1.85 139 1.95 132 1.96 215 2.02 173 2.03
   6  0.500  0.008  0.500- 111 1.77 190 1.90 133 1.91 138 1.91 174 1.93 224 2.02
   7  0.504  0.496  0.996-  69 1.87  89 1.88 119 1.88 191 2.02 134 2.03 216 2.05
   8  0.492  0.499  0.495- 101 1.80  68 1.85 223 1.97 217 1.98 135 2.01 175 2.05
   9  0.007  0.003  0.256-  90 1.83  66 1.86 218 1.94 226 1.97 129 1.99 196 2.05
  10  0.001  0.008  0.757-  67 1.79 112 1.84 176 1.94 197 1.98 227 2.05 130 2.06
  11  0.994  0.494  0.252- 106 1.82 121 1.86 136 1.93 131 1.96 219 2.01 177 2.02
  12  0.993  0.499  0.742- 107 1.82  65 1.82 225 1.93 220 1.97 137 2.01 178 2.03
  13  0.506  0.008  0.250- 113 1.82  91 1.84 132 1.92 138 1.97 194 2.00 230 2.05
  14  0.493  0.005  0.751- 104 1.80 114 1.84 139 1.93 133 1.99 231 2.02 179 2.03
  15  0.493  0.497  0.257-  68 1.82 105 1.84 228 1.96 221 2.00 134 2.01 180 2.04
  16  0.501  0.505  0.758-  69 1.80 115 1.88 181 1.94 195 1.96 229 2.04 135 2.06
  17  0.995  0.257  0.001- 116 1.82 109 1.87 140 1.96 145 1.96 182 2.00 211 2.02
  18  0.999  0.248  0.491-  73 1.77 212 1.91 183 1.93 201 1.93 222 1.95 141 2.01
  19  0.998  0.758  0.006- 117 1.81  70 1.85 202 1.94 184 1.97 147 2.04 213 2.06
  20  0.998  0.757  0.506-  71 1.83 118 1.83 203 1.94 185 1.95 146 2.02 214 2.03
  21  0.495  0.258  0.000- 119 1.80 108 1.84 149 1.95 142 1.97 186 2.03 215 2.08
  22  0.508  0.245  0.500-  92 1.80 111 1.90 143 1.92 148 1.93 223 1.97 198 1.99
  23  0.507  0.757  0.999-  93 1.82 120 1.84 151 1.93 144 1.98 199 2.01 216 2.02
  24  0.507  0.753  0.509-  72 1.79  94 1.83 217 1.96 224 1.96 200 2.00 150 2.06
  25  0.999  0.258  0.255- 121 1.79  73 1.88 208 1.94 187 1.95 140 1.98 218 2.03
  26  0.006  0.242  0.747- 112 1.81  95 1.83 141 1.96 145 1.96 209 2.05 225 2.05
  27  0.007  0.749  0.243-  70 1.81  96 1.83 219 1.95 226 1.98 146 2.04 210 2.05
  28  0.993  0.751  0.744- 110 1.82  71 1.84 227 1.93 220 1.98 188 2.01 147 2.02
  29  0.508  0.242  0.251-  97 1.81 113 1.82 142 1.92 148 1.96 228 2.01 204 2.01
  30  0.507  0.243  0.750-  98 1.84 114 1.85 149 1.92 143 1.97 205 2.02 229 2.02
  31  0.507  0.752  0.252-  99 1.79 150 1.92 230 1.93 144 1.93 221 1.94 206 2.00
  32  0.502  0.742  0.743- 115 1.81  72 1.84 189 1.93 207 1.96 151 2.01 231 2.07
  33  0.256  0.999  0.006-  74 1.84 100 1.86 245 1.93 232 1.97 170 2.01 156 2.04
  34  0.249  0.994  0.507- 127 1.83  75 1.84 171 1.94 190 1.98 155 2.02 233 2.03
  35  0.244  0.508  0.998- 122 1.82  88 1.84 158 1.93 152 1.97 191 2.01 244 2.04
  36  0.254  0.494  0.506-  76 1.85 101 1.87 126 1.88 172 2.03 157 2.04 234 2.05
  37  0.757  0.000  0.994- 102 1.79  80 1.87 235 1.96 248 1.96 173 2.04 153 2.04
  38  0.751  0.007  0.494-  79 1.83 123 1.84 192 1.92 174 1.98 154 1.99 249 2.03
  39  0.742  0.501  0.005-  89 1.80  77 1.87 236 1.95 246 1.96 160 2.02 193 2.05
  40  0.756  0.498  0.505-  78 1.84 103 1.85 247 1.95 237 1.98 175 2.01 159 2.02
  41  0.245  0.002  0.244-  74 1.83  90 1.84 238 1.94 251 1.97 155 2.03 194 2.05
  42  0.257  0.998  0.744-  75 1.84 104 1.84 252 1.93 239 1.97 176 2.01 156 2.02
  43  0.255  0.492  0.252- 128 1.83 105 1.83 157 1.93 152 1.96 177 2.03 240 2.04
  44  0.247  0.507  0.741-  76 1.79 124 1.83 178 1.94 195 1.97 250 2.03 158 2.05
  45  0.745  1.000  0.256-  91 1.85  79 1.86 255 1.95 241 1.96 153 1.99 196 1.99
  46  0.748  0.006  0.756-  80 1.81 125 1.84 179 1.94 197 1.96 256 2.04 154 2.06
  47  0.756  0.500  0.243-  77 1.81 106 1.85 242 1.95 253 1.96 180 2.02 159 2.04
  48  0.757  0.498  0.743- 107 1.82  78 1.83 254 1.94 243 1.98 181 2.02 160 2.03
  49  0.257  0.251  0.006- 108 1.83  81 1.85 244 1.94 232 1.97 167 2.01 182 2.04
  50  0.253  0.257  0.506- 126 1.81  82 1.85 198 1.95 183 2.00 166 2.03 233 2.06
  51  0.252  0.742  0.993- 122 1.82  85 1.83 199 1.94 184 1.96 161 2.03 245 2.04
  52  0.251  0.756  0.493-  84 1.83 127 1.86 200 1.94 185 1.96 234 2.00 162 2.04
  53  0.757  0.250  0.007- 109 1.80  83 1.85 235 1.94 246 1.94 169 2.02 186 2.03
  54  0.743  0.242  0.498- 123 1.82  92 1.84 168 1.92 163 1.95 247 2.02 201 2.02
  55  0.742  0.750  0.994-  93 1.82  87 1.83 236 1.94 248 1.95 202 2.01 164 2.04
  56  0.742  0.752  0.494-  94 1.81  86 1.86 249 1.94 237 1.96 165 2.01 203 2.02
  57  0.251  0.258  0.244- 128 1.82  81 1.82 204 1.95 187 1.98 166 2.03 238 2.04
  58  0.244  0.251  0.744-  82 1.83  95 1.84 250 1.94 239 1.98 167 2.03 205 2.04
  59  0.244  0.748  0.256-  96 1.83  84 1.84 240 1.94 251 1.98 161 2.02 206 2.05
  60  0.248  0.742  0.757- 124 1.81  85 1.83 188 1.93 207 1.97 162 2.03 252 2.05
  61  0.743  0.251  0.242-  83 1.79  97 1.82 253 1.94 241 1.95 208 2.03 168 2.05
  62  0.744  0.242  0.751- 125 1.82  98 1.84 169 1.93 163 1.99 209 2.01 254 2.05
  63  0.746  0.750  0.257-  86 1.81  99 1.90 242 1.94 255 1.95 210 1.98 164 2.02
  64  0.757  0.751  0.757- 110 1.82  87 1.83 256 1.93 243 1.97 189 2.02 165 2.05
  65  0.005  0.501  0.625-   4 1.82  12 1.82
  66  0.994  0.005  0.376-   2 1.82   9 1.86
  67  0.998  0.002  0.873-  10 1.79   1 1.88
  68  0.503  0.497  0.375-  15 1.82   8 1.85
  69  0.496  0.500  0.874-  16 1.80   7 1.87
  70  0.998  0.747  0.126-  27 1.81  19 1.85
  71  0.001  0.747  0.624-  20 1.83  28 1.84
  72  0.500  0.756  0.625-  24 1.79  32 1.84
  73  0.997  0.246  0.377-  18 1.77  25 1.88
  74  0.254  0.003  0.125-  41 1.83  33 1.84
  75  0.252  0.004  0.625-  42 1.84  34 1.84
  76  0.242  0.497  0.626-  44 1.79  36 1.85
  77  0.753  0.495  0.126-  47 1.81  39 1.87
  78  0.749  0.497  0.624-  48 1.83  40 1.84
  79  0.753  0.997  0.376-  38 1.83  45 1.86
  80  0.748  0.997  0.874-  46 1.81  37 1.87
  81  0.249  0.249  0.126-  57 1.82  49 1.85
  82  0.255  0.249  0.625-  58 1.83  50 1.85
  83  0.746  0.255  0.126-  61 1.79  53 1.85
  84  0.254  0.747  0.375-  52 1.83  59 1.84
  85  0.250  0.753  0.875-  51 1.83  60 1.83
  86  0.752  0.754  0.374-  63 1.81  56 1.86
  87  0.747  0.754  0.875-  55 1.83  64 1.83
  88  0.124  0.501  0.998-   3 1.83  35 1.84
  89  0.626  0.505  0.001-  39 1.80   7 1.88
  90  0.125  0.001  0.253-   9 1.83  41 1.84
  91  0.625  0.998  0.252-  13 1.84  45 1.85
  92  0.624  0.252  0.499-  22 1.80  54 1.84
  93  0.625  0.745  0.004-  55 1.82  23 1.82
  94  0.625  0.757  0.497-  56 1.81  24 1.83
  95  0.125  0.250  0.747-  26 1.83  58 1.84
  96  0.126  0.753  0.251-  59 1.83  27 1.83
  97  0.625  0.248  0.259-  29 1.81  61 1.82
  98  0.625  0.251  0.744-  30 1.84  62 1.84
  99  0.623  0.755  0.250-  31 1.79  63 1.90
 100  0.376  0.002  0.993-   5 1.83  33 1.86
 101  0.375  0.501  0.501-   8 1.80  36 1.87
 102  0.873  0.004  0.002-  37 1.79   1 1.89
 103  0.875  0.498  0.496-   4 1.83  40 1.85
 104  0.376  0.996  0.755-  14 1.80  42 1.84
 105  0.374  0.498  0.252-  43 1.83  15 1.84
 106  0.876  0.500  0.256-  11 1.82  47 1.85
 107  0.875  0.506  0.750-  12 1.82  48 1.82
 108  0.376  0.247  0.000-  49 1.83  21 1.84
 109  0.874  0.246  0.002-  53 1.80  17 1.87
 110  0.875  0.747  0.750-  64 1.82  28 1.82
 111  0.505  0.123  0.500-   6 1.77  22 1.90
 112  0.995  0.126  0.744-  26 1.81  10 1.84
 113  0.498  0.125  0.258-  13 1.82  29 1.82
 114  0.500  0.124  0.744-  14 1.84  30 1.85
 115  0.500  0.626  0.747-  32 1.81  16 1.88
 116  0.998  0.375  0.004-  17 1.82   3 1.86
 117  0.999  0.875  0.001-  19 1.81   1 1.87
 118  0.002  0.875  0.498-   2 1.81  20 1.83
 119  0.501  0.374  0.004-  21 1.80   7 1.88
 120  0.502  0.876  0.000-  23 1.84   5 1.85
 121  0.004  0.374  0.248-  25 1.79  11 1.86
 122  0.253  0.625  0.000-  51 1.82  35 1.82
 123  0.748  0.125  0.502-  54 1.82  38 1.84
 124  0.250  0.625  0.751-  60 1.81  44 1.83
 125  0.753  0.125  0.747-  62 1.82  46 1.84
 126  0.249  0.373  0.495-  50 1.81  36 1.88
 127  0.247  0.876  0.500-  34 1.83  52 1.86
 128  0.244  0.375  0.255-  57 1.82  43 1.83
 129  0.001  0.002  0.127-   9 1.99   1 2.04
 130  0.005  0.998  0.624-   2 2.01  10 2.06
 131  0.997  0.507  0.125-  11 1.96   3 1.98
 132  0.496  0.003  0.126-  13 1.92   5 1.96
 133  0.499  0.991  0.623-   6 1.91  14 1.99
 134  0.500  0.505  0.127-  15 2.01   7 2.03
 135  0.505  0.498  0.625-   8 2.01  16 2.06
 136  0.007  0.497  0.376-  11 1.93   4 2.03
 137  0.998  0.498  0.873-   3 1.93  12 2.01
 138  0.500  0.994  0.377-   6 1.91  13 1.97
 139  0.514  0.004  0.875-  14 1.93   5 1.95
 140  0.004  0.246  0.127-  17 1.96  25 1.98
 141  0.996  0.258  0.621-  26 1.96  18 2.01
 142  0.505  0.243  0.126-  29 1.92  21 1.97
 143  0.492  0.252  0.623-  22 1.92  30 1.97
 144  0.495  0.749  0.127-  31 1.93  23 1.98
 145  0.998  0.250  0.874-  17 1.96  26 1.96
 146  0.995  0.749  0.375-  20 2.02  27 2.04
 147  0.003  0.750  0.874-  28 2.02  19 2.04
 148  0.494  0.258  0.376-  22 1.93  29 1.96
 149  0.504  0.248  0.874-  30 1.92  21 1.95
 150  0.494  0.751  0.376-  31 1.92  24 2.06
 151  0.500  0.750  0.874-  23 1.93  32 2.01
 152  0.248  0.496  0.125-  43 1.96  35 1.97
 153  0.748  0.006  0.127-  45 1.99  37 2.04
 154  0.745  0.998  0.623-  38 1.99  46 2.06
 155  0.254  0.001  0.376-  34 2.02  41 2.03
 156  0.244  0.995  0.874-  42 2.02  33 2.04
 157  0.244  0.510  0.375-  43 1.93  36 2.04
 158  0.257  0.496  0.874-  35 1.93  44 2.05
 159  0.744  0.503  0.375-  40 2.02  47 2.04
 160  0.750  0.503  0.874-  39 2.02  48 2.03
 161  0.253  0.753  0.125-  59 2.02  51 2.03
 162  0.250  0.750  0.625-  60 2.03  52 2.04
 163  0.755  0.258  0.623-  54 1.95  62 1.99
 164  0.753  0.746  0.126-  63 2.02  55 2.04
 165  0.749  0.747  0.624-  56 2.01  64 2.05
 166  0.250  0.244  0.375-  50 2.03  57 2.03
 167  0.249  0.252  0.875-  49 2.01  58 2.03
 168  0.759  0.247  0.374-  54 1.92  61 2.05
 169  0.748  0.248  0.876-  62 1.93  53 2.02
 170  0.126  0.000  0.001-  33 2.01   1 2.02
 171  0.125  0.010  0.496-  34 1.94   2 1.94
 172  0.123  0.502  0.495-   4 2.00  36 2.03
 173  0.625  1.000  0.006-   5 2.03  37 2.04
 174  0.624  0.990  0.500-   6 1.93  38 1.98
 175  0.625  0.498  0.500-  40 2.01   8 2.05
 176  0.127  0.001  0.749-  10 1.94  42 2.01
 177  0.124  0.505  0.246-  11 2.02  43 2.03
 178  0.123  0.495  0.760-  44 1.94  12 2.03
 179  0.624  0.996  0.742-  46 1.94  14 2.03
 180  0.625  0.498  0.247-  47 2.02  15 2.04
 181  0.626  0.495  0.752-  16 1.94  48 2.02
 182  0.125  0.251  0.997-  17 2.00  49 2.04
 183  0.123  0.243  0.502-  18 1.93  50 2.00
 184  0.125  0.748  0.002-  51 1.96  19 1.97
 185  0.124  0.745  0.497-  20 1.95  52 1.96
 186  0.626  0.250  0.997-  21 2.03  53 2.03
 187  0.124  0.240  0.254-  25 1.95  57 1.98
 188  0.124  0.752  0.750-  60 1.93  28 2.01
 189  0.626  0.753  0.749-  32 1.93  64 2.02
 190  0.377  0.001  0.498-   6 1.90  34 1.98
 191  0.374  0.498  0.005-  35 2.01   7 2.02
 192  0.875  0.001  0.511-  38 1.92   2 1.95
 193  0.875  0.500  0.997-   3 2.02  39 2.05
 194  0.377  0.998  0.255-  13 2.00  41 2.05
 195  0.375  0.497  0.743-  16 1.96  44 1.97
 196  0.874  0.001  0.245-  45 1.99   9 2.05
 197  0.874  0.992  0.741-  46 1.96  10 1.98
 198  0.379  0.247  0.495-  50 1.95  22 1.99
 199  0.377  0.754  0.001-  51 1.94  23 2.01
 200  0.377  0.749  0.501-  52 1.94  24 2.00
 201  0.874  0.253  0.502-  18 1.93  54 2.02
 202  0.872  0.752  0.998-  19 1.94  55 2.01
 203  0.873  0.747  0.502-  20 1.94  56 2.02
 204  0.378  0.255  0.250-  57 1.95  29 2.01
 205  0.376  0.250  0.755-  30 2.02  58 2.04
 206  0.377  0.748  0.248-  31 2.00  59 2.05
 207  0.375  0.756  0.750-  32 1.96  60 1.97
 208  0.874  0.252  0.248-  25 1.94  61 2.03
 209  0.874  0.255  0.750-  62 2.01  26 2.05
 210  0.874  0.746  0.250-  63 1.98  27 2.05
 211  0.005  0.127  0.002-  17 2.02   1 2.04
 212  0.994  0.126  0.509-  18 1.91   2 2.09
 213  0.996  0.625  0.996-   3 2.02  19 2.06
 214  0.999  0.626  0.494-   4 1.93  20 2.03
 215  0.506  0.124  0.000-   5 2.02  21 2.08
 216  0.492  0.628  0.001-  23 2.02   7 2.05
 217  0.504  0.627  0.500-  24 1.96   8 1.98
 218  0.995  0.127  0.247-   9 1.94  25 2.03
 219  0.001  0.623  0.256-  27 1.95  11 2.01
 220  0.008  0.625  0.755-  12 1.97  28 1.98
 221  0.503  0.626  0.252-  31 1.94  15 2.00
 222  0.004  0.373  0.498-  18 1.95   4 2.00
 223  0.498  0.372  0.503-  22 1.97   8 1.97
 224  0.494  0.878  0.495-  24 1.96   6 2.02
 225  0.997  0.374  0.751-  12 1.93  26 2.05
 226  0.994  0.876  0.252-   9 1.97  27 1.98
 227  0.002  0.876  0.748-  28 1.93  10 2.05
 228  0.502  0.372  0.244-  15 1.96  29 2.01
 229  0.498  0.373  0.748-  30 2.02  16 2.04
 230  0.495  0.876  0.250-  31 1.93  13 2.05
 231  0.503  0.876  0.755-  14 2.02  32 2.07
 232  0.245  0.125  0.993-  33 1.97  49 1.97
 233  0.254  0.124  0.497-  34 2.03  50 2.06
 234  0.249  0.627  0.504-  52 2.00  36 2.05
 235  0.742  0.126  1.000-  53 1.94  37 1.96
 236  0.758  0.626  0.000-  55 1.94  39 1.95
 237  0.748  0.626  0.499-  56 1.96  40 1.98
 238  0.257  0.126  0.254-  41 1.94  57 2.04
 239  0.252  0.124  0.758-  42 1.97  58 1.98
 240  0.250  0.624  0.243-  59 1.94  43 2.04
 241  0.755  0.126  0.252-  61 1.95  45 1.96
 242  0.746  0.625  0.250-  63 1.94  47 1.95
 243  0.742  0.625  0.750-  64 1.97  48 1.98
 244  0.251  0.376  0.999-  49 1.94  35 2.04
 245  0.248  0.874  0.003-  33 1.93  51 2.04
 246  0.750  0.375  0.992-  53 1.94  39 1.96
 247  0.751  0.372  0.493-  40 1.95  54 2.02
 248  0.748  0.875  0.010-  55 1.95  37 1.96
 249  0.756  0.876  0.505-  56 1.94  38 2.03
 250  0.252  0.376  0.755-  58 1.94  44 2.03
 251  0.256  0.876  0.250-  41 1.97  59 1.98
 252  0.246  0.874  0.746-  42 1.93  60 2.05
 253  0.750  0.374  0.260-  61 1.94  47 1.96
 254  0.753  0.374  0.755-  48 1.94  62 2.05
 255  0.756  0.875  0.241-  45 1.95  63 1.95
 256  0.749  0.875  0.743-  64 1.93  46 2.04
 

IMPORTANT INFORMATION: All symmetrisations will be switched off!
NOSYMM: (Re-)initialisation of all symmetry stuff for point group C_1.

 
 
 KPOINTS: Title                                   

Automatic generation of k-mesh.
Space group operators:
 irot       det(A)        alpha          n_x          n_y          n_z        tau_x        tau_y        tau_z
    1     1.000000     0.000000     1.000000     0.000000     0.000000     0.000000     0.000000     0.000000
 
 Subroutine IBZKPT returns following result:
 ===========================================
 
 Found      4 irreducible k-points:
 
 Following reciprocal coordinates:
            Coordinates               Weight
  0.250000  0.250000  0.250000      2.000000
 -0.250000  0.250000  0.250000      2.000000
  0.250000 -0.250000  0.250000      2.000000
 -0.250000 -0.250000  0.250000      2.000000
 
 Following cartesian coordinates:
            Coordinates               Weight
  0.016227  0.016157  0.016224      2.000000
 -0.016228  0.016152  0.016230      2.000000
  0.016222 -0.016162  0.016234      2.000000
 -0.016232 -0.016166  0.016240      2.000000
 


--------------------------------------------------------------------------------------------------------




 Dimension of arrays:
   k-points           NKPTS =      4   k-points in BZ     NKDIM =      4   number of bands    NBANDS=   1280
   number of dos      NEDOS =   3001   number of ions     NIONS =    256
   non local maximal  LDIM  =      6   non local SUM 2l+1 LMDIM =     18
   total plane-waves  NPLWV = ******
   max r-space proj   IRMAX =  10363   max aug-charges    IRDMAX= 232333
   dimension x,y,z NGX =   140 NGY =  140 NGZ =  140
   dimension x,y,z NGXF=   280 NGYF=  280 NGZF=  280
   support grid    NGXF=   560 NGYF=  560 NGZF=  560
   ions per type =              64  64 128
   NGX,Y,Z   is equivalent  to a cutoff of  15.11, 15.04, 15.11 a.u.
   NGXF,Y,Z  is equivalent  to a cutoff of  30.21, 30.09, 30.22 a.u.

 SYSTEM =  LTO                                     
 POSCAR =  Ti64 O64 F128                           

 Startparameter for this run:
   NWRITE =      2    write-flag & timer
   PREC   = accura    normal or accurate (medium, high low for compatibility)
   ISTART =      1    job   : 0-new  1-cont  2-samecut
   ICHARG =      0    charge: 1-file 2-atom 10-const
   ISPIN  =      2    spin polarized calculation?
   LNONCOLLINEAR =      F non collinear calculations
   LSORBIT =      F    spin-orbit coupling
   INIWAV =      1    electr: 0-lowe 1-rand  2-diag
   LASPH  =      T    aspherical Exc in radial PAW
   METAGGA=      F    non-selfconsistent MetaGGA calc.

 Electronic Relaxation 1
   ENCUT  =  700.0 eV  51.45 Ry    7.17 a.u.  33.24 33.38 33.23*2*pi/ulx,y,z
   ENINI  =  700.0     initial cutoff
   ENAUG  =  613.6 eV  augmentation charge cutoff
   NELM   =     60;   NELMIN=  2; NELMDL=  0     # of ELM steps 
   EDIFF  = 0.1E-05   stopping-criterion for ELM
   LREAL  =      T    real-space projection
   NLSPLINE    = F    spline interpolate recip. space projectors
   LCOMPAT=      F    compatible to vasp.4.4
   GGA_COMPAT  = T    GGA compatible to vasp.4.4-vasp.4.6
   LMAXPAW     = -100 max onsite density
   LMAXMIX     =    4 max onsite mixed and CHGCAR
   VOSKOWN=      0    Vosko Wilk Nusair interpolation
   ROPT   =   -0.00010  -0.00010  -0.00010
 Ionic relaxation
   EDIFFG = -.1E-01   stopping-criterion for IOM
   NSW    =    100    number of steps for IOM
   NBLOCK =      1;   KBLOCK =    100    inner block; outer block 
   IBRION =      1    ionic relax: 0-MD 1-quasi-New 2-CG
   NFREE  =      0    steps in history (QN), initial steepest desc. (CG)
   ISIF   =      3    stress and relaxation
   IWAVPR =     11    prediction:  0-non 1-charg 2-wave 3-comb
   ISYM   =      0    0-nonsym 1-usesym 2-fastsym
   LCORR  =      T    Harris-Foulkes like correction to forces

   POTIM  = 0.5000    time-step for ionic-motion
   TEIN   =    0.0    initial temperature
   TEBEG  =    0.0;   TEEND  =   0.0 temperature during run
   SMASS  =  -3.00    Nose mass-parameter (am)
   estimated Nose-frequenzy (Omega)   =  0.10E-29 period in steps =****** mass=  -0.542E-26a.u.
   SCALEE = 1.0000    scale energy and forces
   NPACO  =    256;   APACO  = 16.0  distance and # of slots for P.C.
   PSTRESS=    0.0 pullay stress

  Mass of Ions in am
   POMASS =  47.88 16.00 19.00
  Ionic Valenz
   ZVAL   =  10.00  6.00  7.00
  Atomic Wigner-Seitz radii
   RWIGS  =  -1.00 -1.00 -1.00
  virtual crystal weights 
   VCA    =   1.00  1.00  1.00
   NELECT =    1920.0000    total number of electrons
   NUPDOWN=      -1.0000    fix difference up-down

 DOS related values:
   EMIN   =  10.00;   EMAX   =-10.00  energy-range for DOS
   EFERMI =   0.00
   ISMEAR =     0;   SIGMA  =   0.01  broadening in eV -4-tet -1-fermi 0-gaus

 Electronic relaxation 2 (details)
   IALGO  =     38    algorithm
   LDIAG  =      T    sub-space diagonalisation (order eigenvalues)
   LSUBROT=      F    optimize rotation matrix (better conditioning)
   TURBO    =      0    0=normal 1=particle mesh
   IRESTART =      0    0=no restart 2=restart with 2 vectors
   NREBOOT  =      0    no. of reboots
   NMIN     =      0    reboot dimension
   EREF     =   0.00    reference energy to select bands
   IMIX   =      4    mixing-type and parameters
     AMIX     =   0.40;   BMIX     =  1.00
     AMIX_MAG =   1.60;   BMIX_MAG =  1.00
     AMIN     =   0.10
     WC   =   100.;   INIMIX=   1;  MIXPRE=   1;  MAXMIX= -45

 Intra band minimization:
   WEIMIN = 0.0010     energy-eigenvalue tresh-hold
   EBREAK =  0.20E-09  absolut break condition
   DEPER  =   0.30     relativ break condition  

   TIME   =   0.40     timestep for ELM

  volume/ion in A,a.u.               =      14.34        96.77
  Fermi-wavevector in a.u.,A,eV,Ry     =   1.319003  2.492555 23.671003  1.739770
  Thomas-Fermi vector in A             =   2.448933
 
 Write flags
   LWAVE        =      T    write WAVECAR
   LDOWNSAMPLE  =      F    k-point downsampling of WAVECAR
   LCHARG       =      T    write CHGCAR
   LVTOT        =      F    write LOCPOT, total local potential
   LVHAR        =      F    write LOCPOT, Hartree potential only
   LELF         =      F    write electronic localiz. function (ELF)
   LORBIT       =     11    0 simple, 1 ext, 2 COOP (PROOUT), +10 PAW based schemes


 Dipole corrections
   LMONO  =      F    monopole corrections only (constant potential shift)
   LDIPOL =      F    correct potential (dipole corrections)
   IDIPOL =      0    1-x, 2-y, 3-z, 4-all directions 
   EPSILON=  1.0000000 bulk dielectric constant

 LDA+U is selected, type is set to LDAUTYPE =  2
   angular momentum for each species LDAUL =     2   -1   -1
   U (eV)           for each species LDAUU =   4.2  0.0  0.0
   J (eV)           for each species LDAUJ =   0.0  0.0  0.0
 Exchange correlation treatment:
   GGA     =    PS    GGA type
   LEXCH   =    14    internal setting for exchange type
   VOSKOWN=      0    Vosko Wilk Nusair interpolation
   LHFCALC =     F    Hartree Fock is set to
   LHFONE  =     F    Hartree Fock one center treatment
   AEXX    =    0.0000 exact exchange contribution

 Linear response parameters
   LEPSILON=     F    determine dielectric tensor
   LRPA    =     F    only Hartree local field effects (RPA)
   LNABLA  =     F    use nabla operator in PAW spheres
   LVEL    =     F    velocity operator in full k-point grid
   LINTERFAST=   F  fast interpolation
   KINTER  =     0    interpolate to denser k-point grid
   CSHIFT  =0.1000    complex shift for real part using Kramers Kronig
   OMEGAMAX=  -1.0    maximum frequency
   DEG_THRESHOLD= 0.2000000E-02 threshold for treating states as degnerate
   RTIME   =   -0.100 relaxation time in fs
  (WPLASMAI=    0.000 imaginary part of plasma frequency in eV, 0.658/RTIME)
   DFIELD  = 0.0000000 0.0000000 0.0000000 field for delta impulse in time
 
 Orbital magnetization related:
   ORBITALMAG=     F  switch on orbital magnetization
   LCHIMAG   =     F  perturbation theory with respect to B field
   DQ        =  0.001000  dq finite difference perturbation B field
   LLRAUG    =     F  two centre corrections for induced B field



--------------------------------------------------------------------------------------------------------


 quasi-Newton-method for relaxation of ions
 charge density and potential will be updated during run
 spin polarized calculation
 Variant of blocked Davidson
 Davidson routine will perform the subspace rotation
 perform sub-space diagonalisation
    after iterative eigenvector-optimisation
 modified Broyden-mixing scheme, WC =      100.0
 initial mixing is a Kerker type mixing with AMIX =  0.4000 and BMIX =      1.0000
 Hartree-type preconditioning will be used
 using additional bands          320
 real space projection scheme for non local part
 use partial core corrections
 calculate Harris-corrections to forces 
   (improved forces if not selfconsistent)
 use gradient corrections 
 use of overlap-Matrix (Vanderbilt PP)
 Gauss-broadening in eV      SIGMA  =   0.01


--------------------------------------------------------------------------------------------------------


  energy-cutoff  :      700.00
  volume of cell :     3671.03
      direct lattice vectors                 reciprocal lattice vectors
    15.406259052 -0.002131924  0.002692108     0.064908687  0.000009012 -0.000011350
    -0.002147098 15.471026573  0.004643630     0.000008948  0.064636959 -0.000019398
     0.002692482  0.004621700 15.401812976    -0.000011348 -0.000019490  0.064927429

  length of vectors
    15.406259435 15.471027419 15.401813905     0.064908689  0.064636962  0.064927433


 
 old parameters found on file WAVECAR:
  energy-cutoff  :      700.00
  volume of cell :     3670.89
      direct lattice vectors                 reciprocal lattice vectors
    15.406055564 -0.002141407  0.002690823     0.064909545  0.000009052 -0.000011345
    -0.002156621 15.470834881  0.004626915     0.000008988  0.064637760 -0.000019328
     0.002691194  0.004605073 15.401609802    -0.000011343 -0.000019420  0.064928286

  length of vectors

 
 k-points in units of 2pi/SCALE and weight: Title                                   
   0.01622657  0.01615662  0.01622417       0.250
  -0.01622777  0.01615211  0.01622985       0.250
   0.01622210 -0.01616186  0.01623387       0.250
  -0.01623225 -0.01616637  0.01623954       0.250
 
 k-points in reciprocal lattice and weights: Title                                   
   0.25000000  0.25000000  0.25000000       0.250
  -0.25000000  0.25000000  0.25000000       0.250
   0.25000000 -0.25000000  0.25000000       0.250
  -0.25000000 -0.25000000  0.25000000       0.250
 
 position of ions in fractional coordinates (direct lattice) 
   0.99495430  0.99532826  0.99472490
   0.00002940  0.99145159  0.49352654
   0.00563095  0.49489787  0.99803997
   0.99382983  0.50220395  0.50695012
   0.49399462  0.99455372  0.99918279
   0.50025972  0.00842173  0.50029016
   0.50422566  0.49555683  0.99574643
   0.49218768  0.49940185  0.49492595
   0.00662971  0.00250560  0.25625183
   0.00097598  0.00771734  0.75675579
   0.99354702  0.49383793  0.25189914
   0.99257542  0.49872003  0.74246723
   0.50636561  0.00806388  0.25009864
   0.49252217  0.00538349  0.75133924
   0.49320959  0.49744201  0.25727709
   0.50099253  0.50491238  0.75791180
   0.99519957  0.25719844  0.00106271
   0.99885652  0.24783578  0.49149696
   0.99797156  0.75814354  0.00616093
   0.99827276  0.75662686  0.50605377
   0.49461156  0.25818062  0.00010389
   0.50785507  0.24544021  0.50002578
   0.50712815  0.75704258  0.99879609
   0.50678557  0.75297096  0.50890896
   0.99945935  0.25822234  0.25526050
   0.00626847  0.24201498  0.74720629
   0.00691830  0.74860443  0.24319737
   0.99300302  0.75101101  0.74354071
   0.50805137  0.24221365  0.25090723
   0.50654370  0.24275945  0.74952982
   0.50695940  0.75163312  0.25174454
   0.50150770  0.74237225  0.74323956
   0.25614633  0.99879068  0.00600134
   0.24905233  0.99365860  0.50652804
   0.24352749  0.50770470  0.99782092
   0.25416723  0.49408307  0.50632895
   0.75715345  0.00036575  0.99439403
   0.75128726  0.00668667  0.49433319
   0.74218303  0.50053829  0.00515956
   0.75569541  0.49784884  0.50521794
   0.24469567  0.00209498  0.24390287
   0.25708692  0.99786366  0.74431211
   0.25537220  0.49228043  0.25194933
   0.24748625  0.50655994  0.74132346
   0.74490454  0.99967037  0.25588248
   0.74840516  0.00642299  0.75627409
   0.75601454  0.49958594  0.24305936
   0.75731554  0.49824845  0.74298578
   0.25722221  0.25113432  0.00556801
   0.25269999  0.25687830  0.50550740
   0.25175536  0.74240813  0.99344655
   0.25130381  0.75558978  0.49284119
   0.75724651  0.25015273  0.00650822
   0.74335015  0.24232327  0.49815685
   0.74197986  0.74998860  0.99409935
   0.74202644  0.75199967  0.49411520
   0.25140416  0.25765577  0.24365007
   0.24407087  0.25143558  0.74359073
   0.24403997  0.74824815  0.25559413
   0.24827587  0.74179644  0.75659361
   0.74257952  0.25060716  0.24211450
   0.74413558  0.24183502  0.75060705
   0.74589663  0.75042253  0.25662754
   0.75731970  0.75138440  0.75675456
   0.00468328  0.50109022  0.62471576
   0.99386504  0.00549812  0.37622074
   0.99846654  0.00239581  0.87293323
   0.50251032  0.49694773  0.37515458
   0.49641653  0.50002846  0.87443096
   0.99816145  0.74688165  0.12578793
   0.00072957  0.74669683  0.62430361
   0.50017833  0.75631357  0.62466308
   0.99744156  0.24630490  0.37654753
   0.25367046  0.00349951  0.12539510
   0.25238223  0.00358824  0.62531077
   0.24167720  0.49676233  0.62574125
   0.75343801  0.49515066  0.12572358
   0.74886360  0.49655339  0.62417614
   0.75301782  0.99702043  0.37611252
   0.74751038  0.99672515  0.87367953
   0.24854447  0.24908873  0.12566662
   0.25453624  0.24886622  0.62512262
   0.74575092  0.25455223  0.12599314
   0.25390906  0.74738546  0.37462682
   0.25047859  0.75320453  0.87508866
   0.75176551  0.75432642  0.37408273
   0.74726239  0.75449714  0.87540451
   0.12441683  0.50143323  0.99762310
   0.62582577  0.50529090  0.00067561
   0.12533416  0.00105690  0.25329622
   0.62511943  0.99840260  0.25176345
   0.62440538  0.25197030  0.49870923
   0.62468964  0.74477356  0.00435852
   0.62469766  0.75675226  0.49704187
   0.12452574  0.25000502  0.74714985
   0.12560140  0.75291980  0.25102780
   0.62534791  0.24811950  0.25861739
   0.62534928  0.25098393  0.74404027
   0.62314710  0.75495247  0.25000327
   0.37584551  0.00180421  0.99314320
   0.37527992  0.50134682  0.50138106
   0.87295882  0.00383218  0.00171830
   0.87534215  0.49844362  0.49621099
   0.37583691  0.99614169  0.75542197
   0.37406794  0.49812046  0.25158289
   0.87566241  0.49975849  0.25559627
   0.87516692  0.50555922  0.75006522
   0.37563423  0.24668596  0.00037981
   0.87416605  0.24635255  0.00198801
   0.87495162  0.74672550  0.75044117
   0.50454682  0.12281999  0.49953769
   0.99523199  0.12586569  0.74384565
   0.49788326  0.12489328  0.25768217
   0.50003240  0.12378101  0.74401686
   0.50008084  0.62570240  0.74731169
   0.99842322  0.37482425  0.00365401
   0.99937457  0.87490769  0.00077294
   0.00177791  0.87467450  0.49795149
   0.50088311  0.37415776  0.00350122
   0.50220952  0.87555237  0.00044227
   0.00393840  0.37381393  0.24838550
   0.25294816  0.62512203  0.00043616
   0.74768574  0.12501924  0.50160176
   0.24989370  0.62471591  0.75095149
   0.75254596  0.12465041  0.74675383
   0.24873115  0.37300950  0.49461983
   0.24739050  0.87574463  0.50026546
   0.24429081  0.37452031  0.25541125
   0.00112333  0.00159509  0.12690024
   0.00542527  0.99767878  0.62359707
   0.99718019  0.50711731  0.12540850
   0.49602458  0.00260609  0.12619280
   0.49895094  0.99148751  0.62306523
   0.49998037  0.50459714  0.12718055
   0.50499218  0.49787541  0.62462077
   0.00698051  0.49705288  0.37614559
   0.99841179  0.49823537  0.87314848
   0.50037274  0.99403627  0.37687799
   0.51379657  0.00379354  0.87464933
   0.00392709  0.24583527  0.12732032
   0.99646760  0.25778409  0.62142508
   0.50469950  0.24349022  0.12647670
   0.49156683  0.25223666  0.62313772
   0.49510067  0.74938142  0.12673721
   0.99843921  0.24998460  0.87418031
   0.99511042  0.74935352  0.37525736
   0.00275556  0.75014580  0.87407455
   0.49429789  0.25785194  0.37610712
   0.50380356  0.24755306  0.87426150
   0.49390726  0.75115990  0.37560197
   0.49959011  0.75014112  0.87370484
   0.24786116  0.49571890  0.12488202
   0.74790498  0.00568849  0.12668303
   0.74504285  0.99783215  0.62312608
   0.25410460  0.00056755  0.37565027
   0.24387934  0.99458601  0.87447521
   0.24417065  0.51020239  0.37526737
   0.25674828  0.49627280  0.87367093
   0.74353901  0.50322029  0.37476269
   0.74969487  0.50283516  0.87416550
   0.25310526  0.75337640  0.12486645
   0.24985532  0.75033550  0.62499730
   0.75483366  0.25807469  0.62316728
   0.75345241  0.74639275  0.12593413
   0.74868937  0.74702599  0.62433184
   0.24985067  0.24397238  0.37461311
   0.24916803  0.25179022  0.87515160
   0.75869461  0.24711056  0.37428522
   0.74849569  0.24791966  0.87575626
   0.12588302  0.00000795  0.00121166
   0.12458833  0.00988610  0.49649544
   0.12333326  0.50234089  0.49528598
   0.62522547  0.99976805  0.00641010
   0.62399967  0.98991372  0.50001407
   0.62529947  0.49762386  0.50043035
   0.12659609  0.00139323  0.74868849
   0.12403929  0.50512747  0.24647422
   0.12328794  0.49522995  0.76013190
   0.62365908  0.99644667  0.74249036
   0.62528010  0.49788376  0.24747223
   0.62645879  0.49514892  0.75248976
   0.12489804  0.25121108  0.99741389
   0.12346393  0.24269477  0.50161943
   0.12520862  0.74796347  0.00173049
   0.12430038  0.74525320  0.49687306
   0.62588199  0.25036498  0.99740946
   0.12443866  0.23962932  0.25358822
   0.12358562  0.75214456  0.74981291
   0.62628871  0.75266834  0.74885234
   0.37703397  0.00125220  0.49818173
   0.37350555  0.49777701  0.00526930
   0.87497625  0.00130461  0.51099070
   0.87467624  0.49966152  0.99654388
   0.37730193  0.99776229  0.25464161
   0.37471818  0.49667875  0.74331025
   0.87387596  0.00087998  0.24535918
   0.87420157  0.99238010  0.74117051
   0.37858616  0.24683279  0.49539975
   0.37667231  0.75406720  0.00066756
   0.37701550  0.74869595  0.50135138
   0.87419447  0.25323521  0.50209009
   0.87238477  0.75155038  0.99803340
   0.87277792  0.74732995  0.50234991
   0.37793340  0.25466998  0.25002078
   0.37608274  0.25030646  0.75490354
   0.37716349  0.74757752  0.24818137
   0.37511328  0.75627139  0.74972114
   0.87396958  0.25180315  0.24777141
   0.87413749  0.25478903  0.74979248
   0.87392026  0.74607298  0.24990689
   0.00498900  0.12674015  0.00150092
   0.99417947  0.12555249  0.50881793
   0.99608175  0.62513374  0.99553115
   0.99883620  0.62613853  0.49385400
   0.50553981  0.12444299  0.00043955
   0.49248182  0.62754510  0.00122083
   0.50352475  0.62682642  0.50008564
   0.99459388  0.12724201  0.24667669
   0.00085642  0.62338440  0.25605136
   0.00804516  0.62454690  0.75455334
   0.50257220  0.62630315  0.25202510
   0.00436250  0.37339310  0.49790960
   0.49790995  0.37225395  0.50326053
   0.49405627  0.87816707  0.49526947
   0.99713078  0.37424527  0.75109092
   0.99409553  0.87572019  0.25202031
   0.00172706  0.87569929  0.74797036
   0.50160903  0.37199748  0.24427845
   0.49802690  0.37325212  0.74803042
   0.49522909  0.87594501  0.24950553
   0.50337838  0.87563939  0.75512491
   0.24459070  0.12478493  0.99326784
   0.25358012  0.12423160  0.49668946
   0.24936196  0.62651578  0.50395316
   0.74192528  0.12580611  0.99956313
   0.75833485  0.62559773  0.00037029
   0.74762978  0.62552155  0.49898986
   0.25730387  0.12621778  0.25397410
   0.25189651  0.12444385  0.75754701
   0.24996900  0.62385003  0.24250680
   0.75515385  0.12562879  0.25183849
   0.74559898  0.62531214  0.25012127
   0.74196152  0.62513853  0.74963714
   0.25052107  0.37590820  0.99879032
   0.24804461  0.87405060  0.00343958
   0.74971964  0.37476082  0.99168478
   0.75067385  0.37238149  0.49282390
   0.74836102  0.87492162  0.00990724
   0.75649468  0.87633703  0.50535382
   0.25221929  0.37580610  0.75456798
   0.25582796  0.87551984  0.25039712
   0.24582924  0.87364062  0.74577764
   0.75028169  0.37419754  0.26007260
   0.75267742  0.37377329  0.75499734
   0.75614905  0.87512928  0.24135154
   0.74909303  0.87532666  0.74262255
 
 position of ions in cartesian coordinates  (Angst):
  15.32906490 15.40122606 15.32786730
  -0.00034694 15.34105480  7.60580744
   0.08837654  7.66117875 15.37393823
  15.31148655  7.76983486  7.81295842
   7.61116394 15.39033181 15.39517465
   7.70845985  0.13153850  7.70676137
   7.76984812  7.67029991 15.33995883
   7.58303115  7.72749733  7.62640093
   0.10282360  0.03993437  3.94677220
   0.01705725  0.12289066 11.65544968
  15.30646065  7.63922585  3.88467141
  15.29280232  7.71702618 11.44032943
   7.80185587  0.12483284  3.85337304
   7.58993554  0.08571054 11.57333738
   7.59813944  7.69607618  3.96617138
   7.71937723  7.81394769 11.67690911
  15.33175308  3.97700717  0.02024112
  15.38943354  3.83441605  7.57378420
  15.37339719 11.72715968  0.10109664
  15.37938673 11.70600484  7.80034651
   7.61955970  3.99326526  0.00413052
   7.82496602  3.79844031  7.70381048
   7.81401150 11.71576085 15.38815124
   7.80742326 11.65050527  7.84298142
  15.39806256  3.99401360  3.93536423
   0.09806589  3.74766017 11.50947229
   0.10563260 11.58278825  3.74917529
  15.29885126 11.62023069 11.45803560
   7.82732647  3.74737037  3.86691877
   7.80544037  3.75812207 11.54660906
   7.80941188 11.62861869  3.88217739
   7.72676476 11.48762661 11.45203411
   3.94412844 15.45179886  0.09775905
   3.83619507 15.37472872  7.80673486
   3.75344416  7.85880534 15.37126437
   3.91606863  7.64577048  7.80136243
  11.66757886  0.00864011 15.31751084
  11.57584280  0.10413263  7.61568095
  11.43320320  7.74228271  0.08378900
  11.64273059  7.70295651  7.78561843
   3.77049713  0.03301714  3.75721490
   3.96060915 15.44086716 11.46908176
   3.93395169  7.61670360  3.88344985
   3.81374567  7.83990078 11.42074381
  11.47473489 15.46552135  3.94770164
  11.53214628  0.10127004 11.65003672
  11.64693765  7.72861897  3.74790993
  11.66833007  7.71023440 11.44768043
   3.96230779  3.88478306  0.08761602
   3.89397100  3.97596855  7.78760356
   3.87968908 11.48987060 15.30500314
   3.87135617 11.69149156  7.59483306
  11.66581636  3.86853527  0.10343865
  11.45306601  3.74970727  7.67564514
  11.43220027 11.60610620 15.31641246
  11.43156739 11.63490856  7.61575949
   3.87330042  3.98678930  3.75452605
   3.76168133  3.89288282 11.45446993
   3.75882456 11.57682802  3.94074457
   3.82544681 11.47931993 11.65702624
  11.44048629  3.87668597  3.73216502
  11.46584721  3.74331874 11.56383564
  11.49055649 11.60940278  3.95802213
  11.66788773 11.62657090 11.66092021
   0.07275805  7.75525740  9.62409485
  15.31274346  0.08468148  5.79718254
  15.38497945  0.03897138 13.44745346
   7.74174723  7.68895415  5.78172115
   7.64920241  7.73893666 13.47148052
  15.37666892 11.55347926  1.94351751
   0.01131770 11.55505025  9.61887680
   7.70593498 11.70276804  9.62580257
  15.36732803  3.81020340  5.80334358
   3.90844298  0.05417982  1.93201108
   3.88994199  0.05786563  9.63161558
   3.72395972  7.68779995  9.64050703
  11.60693653  7.65946373  1.94069876
  11.53780105  7.68347899  9.61776598
  11.60005960 15.42506241  5.79947171
  11.51655093 15.42280546 13.46288959
   3.82894408  3.85370923  1.93731951
   3.92260005  3.85256234  9.62986253
  11.48902451  3.93717677  1.94371251
   3.91119274 11.56401034  5.77408642
   3.85967695 11.65635767 13.48212384
  11.58128174 11.67033030  5.76707883
  11.51325495 11.67529804 13.48833184
   1.91840741  7.76203222 15.36786779
   9.64055086  7.81603787  0.01443683
   1.93161022  0.01725479  3.90156331
   9.62928604 15.44614397  3.88393270
   9.62055278  3.89921291  7.68387730
   9.62254313 11.52109992  0.07226937
   9.62396739 11.70869969  7.66054180
   1.91995073  3.87102195 11.50895838
   1.93410702 11.64933464  3.87011757
   9.63443555  3.83852547  3.98601232
   9.63575747  3.88508462 11.46241805
   9.59941790 11.67971661  3.85568692
   5.79304349  0.03170176 15.29722603
   5.78193323  7.75786709  7.72551573
  13.44902615  0.05743468  0.02883290
  13.48601382  7.71186167  7.64721989
   5.79013601 15.41402467 11.64050540
   5.76259548  7.70680018  3.87815273
  13.49029711  7.73109134  3.94132402
  13.48398241  7.82312087 11.55706798
   5.78658957  3.81568605  0.00800646
  13.46710508  3.80947236  0.03411624
  13.48014862 11.55421302 11.56397757
   7.77426033  1.90138441  7.69571468
  15.33453447  1.94858754 11.45983538
   7.67094419  1.93235666  3.97069287
   7.70536613  1.91739188 11.46112945
   7.70504357  9.68264622 11.51420668
  15.38117189  5.79680430  0.06070685
  15.39474711 13.53359312  0.01865790
   0.02685362 13.53441004  7.67342221
   7.71594106  5.78755296  0.05701098
   7.73529128 13.54462534  0.01222946
   0.06054214  5.78442476  3.82733345
   3.89564380  9.67074225  0.01030143
  11.52012225  1.93490019  7.72816994
   3.85060764  9.66793441 11.56958808
  11.59566094  1.93031665 11.50396765
   3.83254742  5.77259565  7.62044382
   3.81082882 13.55045307  7.70972766
   3.76349106  5.79487324  3.93619311
   0.01764452  0.02526183  1.95450424
   0.08311997 15.43798549  9.60917291
  15.36206521  7.84407911  1.93655767
   7.64221732  0.03984468  1.94494529
   7.68651617 15.34114551  9.60228147
   7.70208613  7.80615759  1.96250024
   7.78065320  7.70445393  9.62396367
   0.10748913  7.69164188  5.79565092
  15.38307192  7.71011948 13.45307108
   7.70775251 15.37943657  5.81056725
   7.91802982  0.06163702 13.47258627
   0.06031678  3.80390407  1.96211593
  15.35295767  3.98893209  9.57495247
   7.77534890  3.76655219  1.95045979
   7.57434207  3.90419201  9.59994521
   7.62638137 11.59323016  1.95679551
  15.38403007  3.86942997 13.46781044
  15.33033041 11.59288102  5.78580239
   0.04319569 11.60955938 13.46582364
   7.61574039  3.98991870  5.79525962
   7.76355055  3.83286645 13.46771799
   7.60866164 11.62189776  5.78976909
   7.69755653 11.60842605 13.46146686
   3.81788519  7.66932895  1.92637876
  11.52274682  0.08699785  1.95318813
  11.47785846 15.43877923  9.60391060
   3.91581158  0.00997493  5.78638190
   3.75748734 15.39078821 13.47377864
   3.76167122  7.89456860  5.78282437
   3.95681739  7.68134010 13.45911194
  11.45508312  7.78548129  5.77636335
  11.55126740  7.78181802 13.46808683
   3.89812377 11.65554387  1.92734943
   3.84940748 11.61081629  9.63024837
  11.63028661  3.99395128  9.60113635
  11.60661949 11.54643774  1.94510819
  11.53457938 11.55854820  9.62132670
   3.84974891  3.77570193  5.77152661
   3.84056292  3.89896673 13.48076128
  11.68912292  3.82316641  5.76786095
  11.53334415  3.83802333 13.49140035
   1.93938970 -0.00013975  0.01900065
   1.92075561  0.15497717  7.64731118
   1.90035906  7.77375543  7.63096682
   9.63025622 15.46613475  0.10505290
   9.61272139 15.31596205  7.70739984
   9.63380455  7.69973174  7.71152888
   1.95238505  0.02474498 11.53150731
   1.91056056  7.81571524  3.79882941
   1.90038928  7.66496604 11.71004100
   9.60811307 15.41815481 11.44200381
   9.63282457  7.70258354  3.81551632
   9.65234930  7.66260439 11.59369228
   1.92635763  3.89083683 15.36348491
   1.90294675  3.75679242  7.72730794
   1.92739518 11.57150371  0.03046310
   1.91474148 11.53186347  7.65654131
   9.64464803  3.87667861 15.36476148
   1.91730254  3.70821835  3.90716610
   1.90439595 11.63965045 11.55230354
   9.64916633 11.64667772 11.53886490
   5.81002169  0.02087145  7.67392270
   5.75326870  7.70034948  0.08447381
  13.48148376  0.02067988  7.87254485
  13.47709909  7.73301759 15.35325748
   5.81135458 15.43677933  3.92759139
   5.77394028  7.68676660 11.45164057
  13.46381811  0.01288518  3.78133288
  13.46804068 15.35470067 11.42233121
   5.83340039  3.82023907  7.63221974
   5.80149397 11.66539378  0.01479730
   5.80814075 11.58460829  7.72621179
  13.46887458  3.91826542  7.73662707
  13.44125926 11.63000865 15.37736228
  13.44599072 11.56242247  7.74291932
   5.82266627  3.94035590  3.85297339
   5.79552327  3.87518501 11.62905787
   5.80974161 11.56613468  3.82692987
   5.77948715 11.70296003 11.55158653
  13.46472824  3.89493514  3.81965105
  13.46866030  3.94344959 11.55170003
  13.46291288 11.54180683  3.85483631
   0.07659368  1.96079648  0.02371888
  15.31768694  1.94265801  7.83997803
  15.34723165  9.67393825 15.33856904
  15.38831454  9.68715880  7.61184348
   7.78821131  1.92418499  0.00870868
   7.58595839  9.70772264  0.02304287
   7.75743331  9.69888601  7.70649185
  15.32336194  1.96758419  3.80253674
   0.01254524  9.64557818  3.94655218
   0.12463648  9.66585178 11.62441121
   7.74209141  9.68964609  3.88590468
   0.06774872  5.77906648  7.67045624
   7.67148547  5.76041510  7.75419355
   7.61100687 13.58738179  7.63345568
  15.36327381  5.79130404 11.57258407
  15.31409163 13.54733579  3.88831244
   0.02674127 13.55142026 11.52417061
   7.72777763  5.75524251  3.76540888
   7.67394401  5.77698886 11.52409865
   7.62841868 13.55186592  3.84823830
   7.75533074 13.54945707 11.63571391
   3.77063411  1.93462016 15.29936346
   3.90779160  1.92374526  7.65117768
   3.84174670  9.69463984  7.76537297
  11.43271426  1.94938760 15.39766592
  11.68176097  9.67702405  0.01064970
  11.51817858  9.67817283  7.69026584
   3.96450286  1.95334391  3.91294037
   3.88255544  1.92823818 11.66885332
   3.85040071  9.65218835  3.73861422
  11.63450415  1.94316042  3.88138569
  11.48622181  9.67378721  3.85723193
  11.43152757  9.67341755 11.55067140
   3.86147469  5.81976775 15.38560178
   3.81957215 13.52194721  0.05770222
  11.55224042  5.80091953 15.27750213
  11.56560313  5.76180126  7.59413170
  11.52759184 13.53438600  0.15866697
  11.65423216 13.55855634  7.78947103
   3.88698052  5.81705576 11.62413902
   3.94014615 13.54580257  3.86132398
   3.78744119 13.51903990 11.49104647
  11.55893087  5.78882252  4.00934706
  11.59717356  5.78454119 11.63208973
  11.64819902 13.53865168  3.72335065
  11.54084134 13.54403714 11.44381494
 


--------------------------------------------------------------------------------------------------------


 k-point  1 :   0.2500 0.2500 0.2500  plane waves:  154339
 k-point  2 :  -0.2500 0.2500 0.2500  plane waves:  154337
 k-point  3 :   0.2500-0.2500 0.2500  plane waves:  154333
 k-point  4 :  -0.2500-0.2500 0.2500  plane waves:  154343

 maximum and minimum number of plane-waves per node :     19318    19222

 maximum number of plane-waves:    154343
 maximum index in each direction: 
   IXMAX=   33   IYMAX=   33   IZMAX=   32
   IXMIN=  -33   IYMIN=  -33   IZMIN=  -33


 real space projection operators:
  total allocation   :     149133.84 KBytes
  max/ min on nodes  :      19730.89      17531.67


 parallel 3D FFT for wavefunctions:
    minimum data exchange during FFTs selected (reduces bandwidth)
 parallel 3D FFT for charge:
    minimum data exchange during FFTs selected (reduces bandwidth)


 total amount of memory used by VASP MPI-rank0   389546. kBytes
=======================================================================

   base      :      30000. kBytes
   nonlr-proj:      69333. kBytes
   fftplans  :      38736. kBytes
   grid      :      49123. kBytes
   one-center:        995. kBytes
   wavefun   :     201359. kBytes
 
     INWAV:  cpu time  126.7047: real time  136.3553
 Broyden mixing: mesh for mixing (old mesh)
   NGX = 67   NGY = 67   NGZ = 67
  (NGX  =280   NGY  =280   NGZ  =280)
  gives a total of 300763 points

 charge density for first step will be calculated from the start-wavefunctions


--------------------------------------------------------------------------------------------------------


 Maximum index for non-local projection operator         1582
 Maximum index for augmentation-charges         4472 (set IRDMAX)


--------------------------------------------------------------------------------------------------------


 initial charge from wavefunction
 First call to EWALD:  gamma=   0.115
 Maximum number of real-space cells 3x 3x 3
 Maximum number of reciprocal cells 3x 3x 3

    FEWALD:  cpu time    0.0220: real time    0.0222


--------------------------------------- Iteration      1(   1)  ---------------------------------------


    POTLOK:  cpu time    0.8749: real time    0.8688
    SETDIJ:  cpu time    2.3576: real time    2.3556
     EDDAV:  cpu time  183.4881: real time  182.6353
       DOS:  cpu time    0.0040: real time    0.0043
    CHARGE:  cpu time    8.3147: real time    8.3131
    MIXING:  cpu time    0.0190: real time    0.0195
    --------------------------------------------
      LOOP:  cpu time  195.0583: real time  194.1966

 eigenvalue-minimisations  : 20736
 total energy-change (2. order) :-0.1708831E+04  (-0.5365349E-03)
 number of electron    1920.0000028 magnetization      -0.0000000
 augmentation part      495.6294361 magnetization       0.0000000

 Broyden mixing:
  rms(total) = 0.35477E-03    rms(broyden)= 0.34672E-03
  rms(prec ) = 0.50048E-03
  weight for this iteration     100.00

 Free energy of the ion-electron system (eV)
  ---------------------------------------------------
  alpha Z        PSCENC =      6104.72302919
  Ewald energy   TEWEN  =   -102826.00167816
  -Hartree energ DENC   =    -65585.35737005
  -exchange      EXHF   =         0.00000000
  -V(xc)+E(xc)   XCENC  =      8959.03288411
  PAW double counting   =    144215.31694866  -145204.37496577
  entropy T*S    EENTRO =        -0.00000000
  eigenvalues    EBANDS =    -25790.99605204
  atomic energy  EATOM  =    178418.82573015
  Solvation  Ediel_sol  =         0.00000000
  ---------------------------------------------------
  free energy    TOTEN  =     -1708.83147391 eV

  energy without entropy =    -1708.83147391  energy(sigma->0) =    -1708.83147391


--------------------------------------------------------------------------------------------------------




--------------------------------------- Iteration      1(   2)  ---------------------------------------


    POTLOK:  cpu time    0.6869: real time    0.6869
    SETDIJ:  cpu time    2.3686: real time    2.3661
     EDDAV:  cpu time  194.9354: real time  194.3313
       DOS:  cpu time    0.0070: real time    0.0077
    --------------------------------------------
      LOOP:  cpu time  197.9979: real time  197.3920

 eigenvalue-minimisations  : 22624
 total energy-change (2. order) : 0.5486072E-07  (-0.5984654E-06)
 number of electron    1920.0000028 magnetization      -0.0000000
 augmentation part      495.6294361 magnetization       0.0000000

 Free energy of the ion-electron system (eV)
  ---------------------------------------------------
  alpha Z        PSCENC =      6104.72302919
  Ewald energy   TEWEN  =   -102826.00167816
  -Hartree energ DENC   =    -65585.35488477
  -exchange      EXHF   =         0.00000000
  -V(xc)+E(xc)   XCENC  =      8959.03275968
  PAW double counting   =    144215.31696556  -145204.37469526
  entropy T*S    EENTRO =        -0.00000000
  eigenvalues    EBANDS =    -25790.99870025
  atomic energy  EATOM  =    178418.82573015
  Solvation  Ediel_sol  =         0.00000000
  ---------------------------------------------------
  free energy    TOTEN  =     -1708.83147385 eV

  energy without entropy =    -1708.83147385  energy(sigma->0) =    -1708.83147385


--------------------------------------------------------------------------------------------------------




 average (electrostatic) potential at core
  the test charge radii are     1.0397  0.7215  0.7167
  (the norm of the test charge is              1.0000)
       1 -58.4406       2 -58.8227       3 -58.7791       4 -58.8533       5 -58.8112
       6 -59.7986       7 -58.4605       8 -58.6938       9 -58.8705      10 -58.6081
      11 -58.9390      12 -58.8289      13 -59.1073      14 -58.9062      15 -58.7602
      16 -58.6904      17 -58.8381      18 -59.5295      19 -58.5854      20 -58.8761
      21 -58.6192      22 -59.4626      23 -58.8297      24 -58.8770      25 -59.1123
      26 -58.7017      27 -58.6832      28 -58.8646      29 -59.1216      30 -58.9779
      31 -59.4686      32 -58.7933      33 -58.8079      34 -58.8396      35 -58.6873
      36 -58.4213      37 -58.6927      38 -59.1597      39 -58.6906      40 -58.9001
      41 -58.8198      42 -58.8714      43 -58.7493      44 -58.6033      45 -59.1678
      46 -58.8272      47 -58.8391      48 -58.8502      49 -58.7412      50 -58.6668
      51 -58.6743      52 -58.8210      53 -58.9017      54 -59.2513      55 -58.8485
      56 -59.0326      57 -58.7503      58 -58.7521      59 -58.7583      60 -58.7101
      61 -59.0009      62 -58.9188      63 -59.1481      64 -58.8779      65 -74.1714
      66 -74.0224      67 -73.8447      68 -73.9130      69 -73.8475      70 -73.8821
      71 -74.0355      72 -74.2693      73 -74.6096      74 -73.9798      75 -74.0414
      76 -73.9369      77 -74.0048      78 -74.0304      79 -74.3156      80 -74.0556
      81 -73.9525      82 -73.9204      83 -74.3838      84 -73.9621      85 -73.9108
      86 -74.2434      87 -74.1022      88 -73.8990      89 -73.8456      90 -74.0506
      91 -74.2810      92 -74.6821      93 -74.1740      94 -74.3093      95 -73.9771
      96 -73.9865      97 -74.4360      98 -74.1089      99 -74.3892     100 -73.9711
     101 -73.8559     102 -73.8668     103 -74.0103     104 -74.2404     105 -73.9695
     106 -74.0704     107 -74.1488     108 -73.9249     109 -74.0634     110 -74.2044
     111 -74.8908     112 -74.0586     113 -74.4678     114 -74.1009     115 -73.9884
     116 -73.9216     117 -73.7615     118 -74.2552     119 -73.8417     120 -73.9830
     121 -74.3350     122 -74.0152     123 -74.5202     124 -74.0240     125 -74.2046
     126 -73.8367     127 -73.9805     128 -74.0893     129 -78.4068     130 -78.4111
     131 -79.1865     132 -79.6668     133 -79.9342     134 -78.3773     135 -78.3555
     136 -79.0366     137 -78.9737     138 -79.9605     139 -79.5796     140 -79.1929
     141 -79.1495     142 -79.6078     143 -79.7755     144 -79.4392     145 -79.2223
     146 -78.4207     147 -78.4236     148 -79.8265     149 -79.5194     150 -79.2930
     151 -79.1495     152 -79.0606     153 -78.6306     154 -78.6324     155 -78.4627
     156 -78.4401     157 -78.8588     158 -78.8276     159 -78.4563     160 -78.4735
     161 -78.4233     162 -78.3757     163 -79.4689     164 -78.5869     165 -78.6174
     166 -78.4302     167 -78.3967     168 -79.3174     169 -79.1939     170 -78.3716
     171 -79.5916     172 -78.4198     173 -78.3339     174 -79.9388     175 -78.3749
     176 -78.9780     177 -78.4512     178 -78.9338     179 -79.0310     180 -78.4747
     181 -78.9337     182 -78.4391     183 -79.5217     184 -79.0704     185 -79.2369
     186 -78.4330     187 -79.3461     188 -79.0182     189 -79.0483     190 -79.8705
     191 -78.3452     192 -79.6859     193 -78.2804     194 -78.6224     195 -79.0810
     196 -78.5821     197 -79.1555     198 -79.2227     199 -78.9700     200 -79.1181
     201 -79.4982     202 -78.9175     203 -79.1115     204 -79.1405     205 -78.4845
     206 -78.5768     207 -79.2111     208 -79.2810     209 -78.5335     210 -78.6711
     211 -78.2465     212 -79.2836     213 -78.2370     214 -79.0934     215 -78.3104
     216 -78.3312     217 -79.2978     218 -78.9863     219 -78.9813     220 -79.1551
     221 -79.3877     222 -79.4203     223 -79.2597     224 -79.2829     225 -78.9711
     226 -79.1035     227 -78.9482     228 -79.1280     229 -78.4625     230 -79.3198
     231 -78.4365     232 -79.0155     233 -78.3096     234 -78.3263     235 -79.3697
     236 -79.3493     237 -79.3029     238 -78.9223     239 -79.0636     240 -78.8815
     241 -79.6105     242 -79.5569     243 -79.1958     244 -78.8014     245 -78.8409
     246 -79.3695     247 -79.1552     248 -79.3588     249 -79.2141     250 -78.8540
     251 -79.0782     252 -78.8913     253 -79.5655     254 -78.9932     255 -79.6074
     256 -79.0331
 
 
 
 E-fermi :  -0.7065     XC(G=0):  -9.0199     alpha+bet : -7.7004


 spin component 1

 k-point     1 :       0.2500    0.2500    0.2500
  band No.  band energies     occupation 
      1     -35.8174      1.00000
      2     -35.7947      1.00000
      3     -35.6128      1.00000
      4     -35.5104      1.00000
      5     -35.4947      1.00000
      6     -35.4796      1.00000
      7     -35.4336      1.00000
      8     -35.4243      1.00000
      9     -35.3490      1.00000
     10     -35.3338      1.00000
     11     -35.3169      1.00000
     12     -35.2409      1.00000
     13     -35.2275      1.00000
     14     -35.2017      1.00000
     15     -35.1920      1.00000
     16     -35.1682      1.00000
     17     -35.1595      1.00000
     18     -35.1492      1.00000
     19     -35.1453      1.00000
     20     -35.1176      1.00000
     21     -35.1070      1.00000
     22     -35.0542      1.00000
     23     -35.0460      1.00000
     24     -35.0404      1.00000
     25     -35.0275      1.00000
     26     -35.0190      1.00000
     27     -35.0163      1.00000
     28     -35.0093      1.00000
     29     -35.0067      1.00000
     30     -34.9920      1.00000
     31     -34.9789      1.00000
     32     -34.9728      1.00000
     33     -34.9706      1.00000
     34     -34.9642      1.00000
     35     -34.9590      1.00000
     36     -34.9554      1.00000
     37     -34.9328      1.00000
     38     -34.9309      1.00000
     39     -34.9251      1.00000
     40     -34.9238      1.00000
     41     -34.9221      1.00000
     42     -34.9188      1.00000
     43     -34.9153      1.00000
     44     -34.8944      1.00000
     45     -34.8941      1.00000
     46     -34.8901      1.00000
     47     -34.8814      1.00000
     48     -34.8791      1.00000
     49     -34.8787      1.00000
     50     -34.8764      1.00000
     51     -34.8692      1.00000
     52     -34.8667      1.00000
     53     -34.8573      1.00000
     54     -34.8530      1.00000
     55     -34.8490      1.00000
     56     -34.8489      1.00000
     57     -34.8468      1.00000
     58     -34.8417      1.00000
     59     -34.8412      1.00000
     60     -34.8410      1.00000
     61     -34.8298      1.00000
     62     -34.8227      1.00000
     63     -34.8215      1.00000
     64     -34.8210      1.00000
     65     -34.8180      1.00000
     66     -34.8167      1.00000
     67     -34.8164      1.00000
     68     -34.8026      1.00000
     69     -34.7980      1.00000
     70     -34.7926      1.00000
     71     -34.7906      1.00000
     72     -34.7874      1.00000
     73     -34.7852      1.00000
     74     -34.7845      1.00000
     75     -34.7831      1.00000
     76     -34.7808      1.00000
     77     -34.7647      1.00000
     78     -34.7609      1.00000
     79     -34.7594      1.00000
     80     -34.7551      1.00000
     81     -34.7522      1.00000
     82     -34.7513      1.00000
     83     -34.7468      1.00000
     84     -34.7449      1.00000
     85     -34.7415      1.00000
     86     -34.7415      1.00000
     87     -34.7385      1.00000
     88     -34.7384      1.00000
     89     -34.7381      1.00000
     90     -34.7303      1.00000
     91     -34.7280      1.00000
     92     -34.7260      1.00000
     93     -34.7258      1.00000
     94     -34.7250      1.00000
     95     -34.7204      1.00000
     96     -34.7202      1.00000
     97     -34.7195      1.00000
     98     -34.7141      1.00000
     99     -34.7132      1.00000
    100     -34.7114      1.00000
    101     -34.7083      1.00000
    102     -34.7074      1.00000
    103     -34.7045      1.00000
    104     -34.7038      1.00000
    105     -34.7032      1.00000
    106     -34.7002      1.00000
    107     -34.6988      1.00000
    108     -34.6929      1.00000
    109     -34.6883      1.00000
    110     -34.6852      1.00000
    111     -34.6844      1.00000
    112     -34.6831      1.00000
    113     -34.6829      1.00000
    114     -34.6792      1.00000
    115     -34.6757      1.00000
    116     -34.6740      1.00000
    117     -34.6736      1.00000
    118     -34.6717      1.00000
    119     -34.6709      1.00000
    120     -34.6708      1.00000
    121     -34.6673      1.00000
    122     -34.6652      1.00000
    123     -34.6626      1.00000
    124     -34.6619      1.00000
    125     -34.6596      1.00000
    126     -34.6568      1.00000
    127     -34.6555      1.00000
    128     -34.6549      1.00000
    129     -34.6522      1.00000
    130     -34.6495      1.00000
    131     -34.6443      1.00000
    132     -34.6418      1.00000
    133     -34.6395      1.00000
    134     -34.6307      1.00000
    135     -34.6266      1.00000
    136     -34.6238      1.00000
    137     -34.6225      1.00000
    138     -34.6208      1.00000
    139     -34.6182      1.00000
    140     -34.6168      1.00000
    141     -34.6138      1.00000
    142     -34.6118      1.00000
    143     -34.6071      1.00000
    144     -34.6046      1.00000
    145     -34.6043      1.00000
    146     -34.6042      1.00000
    147     -34.6008      1.00000
    148     -34.5960      1.00000
    149     -34.5943      1.00000
    150     -34.5885      1.00000
    151     -34.5840      1.00000
    152     -34.5828      1.00000
    153     -34.5780      1.00000
    154     -34.5763      1.00000
    155     -34.5749      1.00000
    156     -34.5727      1.00000
    157     -34.5577      1.00000
    158     -34.5561      1.00000
    159     -34.5549      1.00000
    160     -34.5482      1.00000
    161     -34.5444      1.00000
    162     -34.5432      1.00000
    163     -34.5430      1.00000
    164     -34.5393      1.00000
    165     -34.5320      1.00000
    166     -34.5281      1.00000
    167     -34.5166      1.00000
    168     -34.5127      1.00000
    169     -34.5125      1.00000
    170     -34.5106      1.00000
    171     -34.5095      1.00000
    172     -34.5036      1.00000
    173     -34.5004      1.00000
    174     -34.4990      1.00000
    175     -34.4963      1.00000
    176     -34.4931      1.00000
    177     -34.4830      1.00000
    178     -34.4826      1.00000
    179     -34.4696      1.00000
    180     -34.4507      1.00000
    181     -34.4487      1.00000
    182     -34.4381      1.00000
    183     -34.4061      1.00000
    184     -34.3310      1.00000
    185     -34.3219      1.00000
    186     -34.3139      1.00000
    187     -34.3023      1.00000
    188     -34.2980      1.00000
    189     -34.2886      1.00000
    190     -34.2866      1.00000
    191     -34.2744      1.00000
    192     -34.2724      1.00000
    193     -23.8698      1.00000
    194     -23.6691      1.00000
    195     -23.6608      1.00000
    196     -23.5226      1.00000
    197     -23.4961      1.00000
    198     -23.4824      1.00000
    199     -23.4189      1.00000
    200     -23.4024      1.00000
    201     -23.3446      1.00000
    202     -23.3306      1.00000
    203     -23.3167      1.00000
    204     -23.2861      1.00000
    205     -23.2608      1.00000
    206     -23.2328      1.00000
    207     -23.2295      1.00000
    208     -23.1682      1.00000
    209     -23.1442      1.00000
    210     -23.1359      1.00000
    211     -23.1334      1.00000
    212     -23.1194      1.00000
    213     -23.1123      1.00000
    214     -23.1046      1.00000
    215     -23.0902      1.00000
    216     -23.0888      1.00000
    217     -23.0447      1.00000
    218     -23.0350      1.00000
    219     -23.0285      1.00000
    220     -23.0225      1.00000
    221     -23.0089      1.00000
    222     -22.9984      1.00000
    223     -22.9910      1.00000
    224     -22.9778      1.00000
    225     -22.9525      1.00000
    226     -22.9414      1.00000
    227     -22.9360      1.00000
    228     -22.9295      1.00000
    229     -22.9211      1.00000
    230     -22.9016      1.00000
    231     -22.8885      1.00000
    232     -22.8842      1.00000
    233     -22.8744      1.00000
    234     -22.8647      1.00000
    235     -22.8597      1.00000
    236     -22.8527      1.00000
    237     -22.8476      1.00000
    238     -22.8393      1.00000
    239     -22.8301      1.00000
    240     -22.8282      1.00000
    241     -22.8176      1.00000
    242     -22.8156      1.00000
    243     -22.7871      1.00000
    244     -22.7705      1.00000
    245     -22.7685      1.00000
    246     -22.7656      1.00000
    247     -22.7585      1.00000
    248     -22.7572      1.00000
    249     -22.7460      1.00000
    250     -22.7183      1.00000
    251     -22.7068      1.00000
    252     -22.6980      1.00000
    253     -22.6856      1.00000
    254     -22.6799      1.00000
    255     -22.6697      1.00000
    256     -22.6610      1.00000
    257     -22.6408      1.00000
    258     -22.6306      1.00000
    259     -22.6259      1.00000
    260     -22.6127      1.00000
    261     -22.6047      1.00000
    262     -22.5890      1.00000
    263     -22.5675      1.00000
    264     -22.5567      1.00000
    265     -22.5546      1.00000
    266     -22.5437      1.00000
    267     -22.5290      1.00000
    268     -22.5125      1.00000
    269     -22.5071      1.00000
    270     -22.5001      1.00000
    271     -22.4836      1.00000
    272     -22.4719      1.00000
    273     -22.4614      1.00000
    274     -22.4499      1.00000
    275     -22.4306      1.00000
    276     -22.4218      1.00000
    277     -22.3731      1.00000
    278     -22.3552      1.00000
    279     -22.3479      1.00000
    280     -22.3320      1.00000
    281     -22.2897      1.00000
    282     -22.2835      1.00000
    283     -22.2553      1.00000
    284     -22.2399      1.00000
    285     -22.2204      1.00000
    286     -22.2150      1.00000
    287     -22.2048      1.00000
    288     -22.1966      1.00000
    289     -22.1748      1.00000
    290     -22.1408      1.00000
    291     -22.1386      1.00000
    292     -22.1358      1.00000
    293     -22.1343      1.00000
    294     -22.1264      1.00000
    295     -22.1197      1.00000
    296     -22.1024      1.00000
    297     -22.0956      1.00000
    298     -22.0951      1.00000
    299     -22.0864      1.00000
    300     -22.0839      1.00000
    301     -22.0824      1.00000
    302     -22.0775      1.00000
    303     -22.0732      1.00000
    304     -22.0642      1.00000
    305     -22.0599      1.00000
    306     -22.0515      1.00000
    307     -22.0442      1.00000
    308     -22.0336      1.00000
    309     -22.0244      1.00000
    310     -22.0006      1.00000
    311     -21.9669      1.00000
    312     -21.9556      1.00000
    313     -21.9518      1.00000
    314     -21.9422      1.00000
    315     -21.9312      1.00000
    316     -21.9296      1.00000
    317     -21.9258      1.00000
    318     -21.9104      1.00000
    319     -21.8601      1.00000
    320     -21.8411      1.00000
    321     -17.3790      1.00000
    322     -17.1684      1.00000
    323     -17.0924      1.00000
    324     -17.0556      1.00000
    325     -17.0028      1.00000
    326     -16.9376      1.00000
    327     -16.9184      1.00000
    328     -16.8578      1.00000
    329     -16.8388      1.00000
    330     -16.8147      1.00000
    331     -16.8105      1.00000
    332     -16.7894      1.00000
    333     -16.7863      1.00000
    334     -16.7645      1.00000
    335     -16.7561      1.00000
    336     -16.7529      1.00000
    337     -16.7375      1.00000
    338     -16.7007      1.00000
[...]
   79        1.569   3.464   0.000   5.032
   80        1.568   3.465   0.000   5.033
   81        1.568   3.466   0.000   5.034
   82        1.568   3.465   0.000   5.033
   83        1.570   3.478   0.000   5.048
   84        1.569   3.467   0.000   5.036
   85        1.569   3.470   0.000   5.039
   86        1.570   3.467   0.000   5.037
   87        1.569   3.469   0.000   5.038
   88        1.569   3.467   0.000   5.036
   89        1.569   3.463   0.000   5.032
   90        1.568   3.465   0.000   5.033
   91        1.568   3.465   0.000   5.033
   92        1.571   3.477   0.000   5.048
   93        1.571   3.477   0.000   5.048
   94        1.570   3.480   0.000   5.050
   95        1.569   3.468   0.000   5.037
   96        1.569   3.469   0.000   5.038
   97        1.570   3.480   0.000   5.051
   98        1.569   3.467   0.000   5.036
   99        1.570   3.461   0.000   5.031
  100        1.569   3.463   0.000   5.031
  101        1.569   3.465   0.000   5.034
  102        1.570   3.463   0.000   5.033
  103        1.568   3.465   0.000   5.033
  104        1.571   3.475   0.000   5.046
  105        1.569   3.467   0.000   5.036
  106        1.569   3.466   0.000   5.035
  107        1.570   3.478   0.000   5.048
  108        1.569   3.467   0.000   5.036
  109        1.569   3.465   0.000   5.034
  110        1.570   3.477   0.000   5.047
  111        1.570   3.468   0.000   5.038
  112        1.570   3.475   0.000   5.045
  113        1.570   3.478   0.000   5.049
  114        1.568   3.466   0.000   5.034
  115        1.568   3.464   0.000   5.032
  116        1.568   3.462   0.000   5.031
  117        1.569   3.464   0.000   5.033
  118        1.570   3.478   0.000   5.047
  119        1.569   3.462   0.000   5.031
  120        1.568   3.466   0.000   5.034
  121        1.570   3.470   0.000   5.040
  122        1.570   3.475   0.000   5.046
  123        1.570   3.474   0.000   5.044
  124        1.569   3.476   0.000   5.045
  125        1.569   3.472   0.000   5.041
  126        1.568   3.461   0.000   5.029
  127        1.568   3.462   0.000   5.030
  128        1.570   3.473   0.000   5.042
  129        1.729   4.374   0.000   6.103
  130        1.729   4.375   0.000   6.104
  131        1.730   4.384   0.000   6.114
  132        1.731   4.393   0.000   6.124
  133        1.731   4.389   0.000   6.120
  134        1.729   4.374   0.000   6.103
  135        1.729   4.373   0.000   6.101
  136        1.731   4.385   0.000   6.115
  137        1.731   4.386   0.000   6.117
  138        1.731   4.394   0.000   6.125
  139        1.731   4.392   0.000   6.123
  140        1.730   4.386   0.000   6.116
  141        1.730   4.385   0.000   6.115
  142        1.730   4.393   0.000   6.124
  143        1.731   4.391   0.000   6.123
  144        1.730   4.387   0.000   6.118
  145        1.729   4.387   0.000   6.116
  146        1.729   4.374   0.000   6.102
  147        1.728   4.373   0.000   6.102
  148        1.731   4.392   0.000   6.124
  149        1.731   4.394   0.000   6.124
  150        1.730   4.381   0.000   6.111
  151        1.730   4.385   0.000   6.115
  152        1.730   4.387   0.000   6.117
  153        1.729   4.376   0.000   6.105
  154        1.729   4.377   0.000   6.106
  155        1.729   4.374   0.000   6.103
  156        1.729   4.373   0.000   6.102
  157        1.730   4.381   0.000   6.111
  158        1.730   4.381   0.000   6.111
  159        1.729   4.373   0.000   6.102
  160        1.729   4.375   0.000   6.104
  161        1.729   4.374   0.000   6.103
  162        1.728   4.372   0.000   6.100
  163        1.730   4.385   0.000   6.115
  164        1.729   4.374   0.000   6.103
  165        1.729   4.374   0.000   6.102
  166        1.729   4.375   0.000   6.103
  167        1.729   4.375   0.000   6.104
  168        1.731   4.383   0.000   6.113
  169        1.730   4.385   0.000   6.115
  170        1.729   4.375   0.000   6.104
  171        1.731   4.392   0.000   6.123
  172        1.729   4.376   0.000   6.106
  173        1.729   4.374   0.000   6.103
  174        1.731   4.389   0.000   6.120
  175        1.729   4.372   0.000   6.101
  176        1.730   4.385   0.000   6.115
  177        1.729   4.374   0.000   6.103
  178        1.730   4.382   0.000   6.112
  179        1.730   4.384   0.000   6.114
  180        1.729   4.374   0.000   6.102
  181        1.730   4.383   0.000   6.113
  182        1.729   4.374   0.000   6.103
  183        1.730   4.385   0.000   6.114
  184        1.730   4.387   0.000   6.117
  185        1.730   4.387   0.000   6.117
  186        1.729   4.376   0.000   6.105
  187        1.730   4.385   0.000   6.115
  188        1.730   4.386   0.000   6.117
  189        1.730   4.386   0.000   6.116
  190        1.731   4.392   0.000   6.124
  191        1.729   4.375   0.000   6.104
  192        1.731   4.393   0.000   6.124
  193        1.729   4.373   0.000   6.102
  194        1.729   4.375   0.000   6.104
  195        1.730   4.387   0.000   6.116
  196        1.729   4.374   0.000   6.103
  197        1.729   4.384   0.000   6.114
  198        1.730   4.387   0.000   6.117
  199        1.730   4.386   0.000   6.117
  200        1.730   4.386   0.000   6.116
  201        1.730   4.385   0.000   6.116
  202        1.730   4.386   0.000   6.116
  203        1.730   4.384   0.000   6.114
  204        1.729   4.384   0.000   6.114
  205        1.729   4.373   0.000   6.101
  206        1.729   4.374   0.000   6.103
  207        1.730   4.386   0.000   6.116
  208        1.730   4.384   0.000   6.114
  209        1.729   4.374   0.000   6.103
  210        1.729   4.376   0.000   6.105
  211        1.729   4.371   0.000   6.099
  212        1.731   4.377   0.000   6.108
  213        1.728   4.369   0.000   6.097
  214        1.730   4.383   0.000   6.113
  215        1.728   4.370   0.000   6.098
  216        1.728   4.370   0.000   6.099
  217        1.729   4.385   0.000   6.114
  218        1.730   4.382   0.000   6.112
  219        1.730   4.383   0.000   6.113
  220        1.730   4.383   0.000   6.113
  221        1.729   4.384   0.000   6.113
  222        1.729   4.383   0.000   6.113
  223        1.730   4.386   0.000   6.116
  224        1.730   4.385   0.000   6.115
  225        1.730   4.381   0.000   6.111
  226        1.729   4.382   0.000   6.111
  227        1.730   4.380   0.000   6.110
  228        1.730   4.383   0.000   6.112
  229        1.728   4.371   0.000   6.100
  230        1.730   4.380   0.000   6.110
  231        1.728   4.371   0.000   6.100
  232        1.730   4.383   0.000   6.113
  233        1.729   4.372   0.000   6.100
  234        1.729   4.372   0.000   6.101
  235        1.730   4.390   0.000   6.121
  236        1.731   4.390   0.000   6.121
  237        1.729   4.384   0.000   6.113
  238        1.730   4.381   0.000   6.111
  239        1.729   4.383   0.000   6.112
  240        1.730   4.380   0.000   6.110
  241        1.730   4.391   0.000   6.121
  242        1.730   4.390   0.000   6.121
  243        1.729   4.383   0.000   6.112
  244        1.730   4.381   0.000   6.111
  245        1.730   4.381   0.000   6.110
  246        1.730   4.389   0.000   6.119
  247        1.730   4.383   0.000   6.112
  248        1.730   4.389   0.000   6.119
  249        1.730   4.382   0.000   6.112
  250        1.730   4.382   0.000   6.112
  251        1.729   4.383   0.000   6.112
  252        1.730   4.381   0.000   6.111
  253        1.731   4.391   0.000   6.122
  254        1.730   4.380   0.000   6.110
  255        1.731   4.388   0.000   6.119
  256        1.730   4.382   0.000   6.112
--------------------------------------------------
tot        342.2401196.459 112.8641651.563
 


 magnetization (x)
 
# of ion       s       p       d       tot
------------------------------------------
    1       -0.000  -0.000  -0.000  -0.000
    2        0.000   0.000   0.000   0.000
    3        0.000   0.000  -0.000  -0.000
    4        0.000   0.000   0.000   0.000
    5        0.000   0.000   0.000   0.000
    6        0.000  -0.000   0.000   0.000
    7       -0.000  -0.000  -0.000  -0.000
    8       -0.000  -0.000   0.000   0.000
    9       -0.000  -0.000  -0.000  -0.000
   10        0.000  -0.000   0.000   0.000
   11        0.000   0.000   0.000   0.000
   12       -0.000   0.000  -0.000  -0.000
   13        0.000   0.000  -0.000  -0.000
   14        0.000  -0.000   0.000   0.000
   15        0.000   0.000   0.000   0.000
   16        0.000   0.000   0.000   0.000
   17        0.000   0.000  -0.000  -0.000
   18        0.000   0.000  -0.000   0.000
   19        0.000  -0.000   0.000   0.000
   20       -0.000   0.000   0.000   0.000
   21       -0.000   0.000  -0.000  -0.000
   22        0.000   0.000   0.000   0.000
   23       -0.000  -0.000  -0.000  -0.000
   24       -0.000   0.000   0.000   0.000
   25        0.000   0.000   0.000   0.000
   26        0.000   0.000   0.000   0.000
   27        0.000  -0.000   0.000   0.000
   28       -0.000   0.000  -0.000   0.000
   29        0.000  -0.000   0.000   0.000
   30       -0.000  -0.000   0.000   0.000
   31        0.000   0.000   0.000   0.000
   32        0.000   0.000   0.000   0.000
   33        0.000   0.000   0.000   0.000
   34        0.000   0.000  -0.000  -0.000
   35       -0.000  -0.000  -0.000  -0.000
   36        0.000   0.000   0.000   0.000
   37       -0.000   0.000  -0.000  -0.000
   38        0.000  -0.000  -0.000  -0.000
   39       -0.000   0.000  -0.000  -0.000
   40       -0.000  -0.000   0.000  -0.000
   41        0.000  -0.000  -0.000  -0.000
   42        0.000   0.000  -0.000  -0.000
   43       -0.000   0.000  -0.000  -0.000
   44        0.000   0.000  -0.000  -0.000
   45       -0.000  -0.000  -0.000  -0.000
   46        0.000  -0.000   0.000  -0.000
   47       -0.000  -0.000  -0.000  -0.000
   48       -0.000   0.000  -0.000  -0.000
   49        0.000  -0.000  -0.000  -0.000
   50        0.000   0.000   0.000   0.000
   51       -0.000  -0.000   0.000   0.000
   52       -0.000   0.000  -0.000  -0.000
   53       -0.000   0.000   0.000   0.000
   54        0.000  -0.000   0.000   0.000
   55       -0.000   0.000  -0.000  -0.000
   56        0.000   0.000   0.000   0.000
   57        0.000  -0.000  -0.000  -0.000
   58        0.000  -0.000   0.000   0.000
   59       -0.000   0.000  -0.000  -0.000
   60       -0.000  -0.000   0.000   0.000
   61        0.000   0.000   0.000   0.000
   62        0.000   0.000   0.000   0.000
   63        0.000   0.000   0.000   0.000
   64        0.000   0.000  -0.000  -0.000
   65       -0.000   0.000   0.000  -0.000
   66       -0.000  -0.000   0.000  -0.000
   67       -0.000  -0.000   0.000  -0.000
   68        0.000  -0.000   0.000   0.000
   69       -0.000   0.000   0.000   0.000
   70        0.000  -0.000   0.000  -0.000
   71       -0.000  -0.000   0.000  -0.000
   72       -0.000   0.000   0.000  -0.000
   73       -0.000   0.000   0.000  -0.000
   74        0.000   0.000   0.000   0.000
   75        0.000   0.000   0.000   0.000
   76        0.000   0.000   0.000   0.000
   77        0.000  -0.000   0.000   0.000
   78       -0.000  -0.000   0.000  -0.000
   79        0.000   0.000   0.000   0.000
   80        0.000  -0.000   0.000  -0.000
   81        0.000   0.000   0.000   0.000
   82       -0.000  -0.000   0.000  -0.000
   83        0.000  -0.000   0.000  -0.000
   84       -0.000   0.000   0.000   0.000
   85       -0.000  -0.000   0.000  -0.000
   86        0.000  -0.000   0.000  -0.000
   87       -0.000   0.000   0.000   0.000
   88       -0.000   0.000   0.000   0.000
   89       -0.000   0.000   0.000   0.000
   90        0.000   0.000   0.000   0.000
   91        0.000   0.000   0.000   0.000
   92        0.000  -0.000   0.000  -0.000
   93        0.000   0.000   0.000   0.000
   94       -0.000  -0.000   0.000  -0.000
   95       -0.000  -0.000   0.000  -0.000
   96        0.000  -0.000   0.000  -0.000
   97       -0.000  -0.000   0.000  -0.000
   98        0.000  -0.000   0.000  -0.000
   99       -0.000  -0.000   0.000  -0.000
  100       -0.000  -0.000   0.000  -0.000
  101        0.000  -0.000   0.000  -0.000
  102       -0.000   0.000   0.000   0.000
  103        0.000   0.000   0.000   0.000
  104        0.000   0.000   0.000   0.000
  105        0.000  -0.000   0.000  -0.000
  106        0.000  -0.000   0.000   0.000
  107        0.000   0.000   0.000   0.000
  108        0.000   0.000   0.000   0.000
  109       -0.000  -0.000   0.000  -0.000
  110       -0.000   0.000   0.000  -0.000
  111        0.000   0.000   0.000   0.000
  112        0.000  -0.000   0.000  -0.000
  113       -0.000   0.000   0.000  -0.000
  114        0.000   0.000   0.000   0.000
  115        0.000  -0.000   0.000  -0.000
  116        0.000   0.000   0.000   0.000
  117       -0.000  -0.000   0.000  -0.000
  118       -0.000  -0.000   0.000  -0.000
  119        0.000   0.000   0.000   0.000
  120        0.000  -0.000   0.000  -0.000
  121       -0.000  -0.000   0.000  -0.000
  122        0.000   0.000   0.000   0.000
  123        0.000   0.000   0.000   0.000
  124        0.000   0.000   0.000   0.000
  125       -0.000  -0.000   0.000  -0.000
  126        0.000  -0.000   0.000  -0.000
  127        0.000   0.000   0.000   0.000
  128        0.000   0.000   0.000   0.000
  129       -0.000   0.000   0.000   0.000
  130       -0.000  -0.000   0.000  -0.000
  131       -0.000  -0.000   0.000  -0.000
  132       -0.000  -0.000   0.000  -0.000
  133        0.000   0.000   0.000   0.000
  134       -0.000   0.000   0.000   0.000
  135       -0.000  -0.000   0.000  -0.000
  136        0.000  -0.000   0.000   0.000
  137       -0.000   0.000   0.000  -0.000
  138       -0.000   0.000   0.000  -0.000
  139        0.000  -0.000   0.000   0.000
  140       -0.000  -0.000   0.000  -0.000
  141        0.000  -0.000   0.000  -0.000
  142        0.000   0.000   0.000   0.000
  143        0.000  -0.000   0.000   0.000
  144        0.000   0.000   0.000   0.000
  145       -0.000  -0.000   0.000  -0.000
  146       -0.000  -0.000   0.000  -0.000
  147       -0.000  -0.000   0.000  -0.000
  148       -0.000  -0.000   0.000  -0.000
  149        0.000   0.000   0.000   0.000
  150        0.000  -0.000   0.000   0.000
  151        0.000   0.000   0.000   0.000
  152        0.000  -0.000   0.000   0.000
  153        0.000   0.000   0.000   0.000
  154        0.000   0.000   0.000   0.000
  155       -0.000   0.000   0.000  -0.000
  156       -0.000   0.000   0.000  -0.000
  157       -0.000   0.000   0.000  -0.000
  158        0.000   0.000   0.000   0.000
  159        0.000   0.000   0.000   0.000
  160        0.000   0.000   0.000   0.000
  161        0.000   0.000   0.000   0.000
  162        0.000  -0.000   0.000  -0.000
  163        0.000  -0.000   0.000   0.000
  164        0.000  -0.000   0.000  -0.000
  165        0.000  -0.000   0.000  -0.000
  166       -0.000  -0.000   0.000  -0.000
  167       -0.000   0.000   0.000   0.000
  168        0.000   0.000   0.000   0.000
  169       -0.000   0.000   0.000   0.000
  170       -0.000   0.000   0.000   0.000
  171       -0.000   0.000   0.000   0.000
  172       -0.000  -0.000   0.000  -0.000
  173        0.000  -0.000   0.000  -0.000
  174        0.000   0.000   0.000   0.000
  175        0.000   0.000   0.000   0.000
  176       -0.000  -0.000   0.000  -0.000
  177       -0.000   0.000   0.000  -0.000
  178       -0.000   0.000   0.000   0.000
  179        0.000   0.000   0.000   0.000
  180        0.000  -0.000   0.000   0.000
  181        0.000  -0.000   0.000  -0.000
  182        0.000   0.000   0.000   0.000
  183       -0.000   0.000   0.000  -0.000
  184       -0.000   0.000   0.000  -0.000
  185       -0.000   0.000   0.000  -0.000
  186        0.000   0.000   0.000   0.000
  187       -0.000  -0.000   0.000  -0.000
  188        0.000   0.000   0.000   0.000
  189       -0.000   0.000   0.000   0.000
  190        0.000   0.000   0.000   0.000
  191       -0.000   0.000   0.000  -0.000
  192        0.000  -0.000   0.000   0.000
  193       -0.000  -0.000   0.000  -0.000
  194        0.000   0.000   0.000   0.000
  195        0.000   0.000   0.000   0.000
  196        0.000   0.000   0.000   0.000
  197       -0.000   0.000   0.000  -0.000
  198       -0.000  -0.000   0.000  -0.000
  199        0.000   0.000   0.000   0.000
  200       -0.000   0.000   0.000  -0.000
  201        0.000  -0.000   0.000   0.000
  202        0.000  -0.000   0.000   0.000
  203        0.000  -0.000   0.000   0.000
  204       -0.000   0.000   0.000  -0.000
  205       -0.000  -0.000   0.000  -0.000
  206       -0.000  -0.000   0.000  -0.000
  207        0.000   0.000   0.000   0.000
  208        0.000  -0.000   0.000   0.000
  209        0.000   0.000   0.000   0.000
  210        0.000  -0.000   0.000  -0.000
  211       -0.000   0.000   0.000   0.000
  212       -0.000  -0.000   0.000  -0.000
  213       -0.000  -0.000   0.000  -0.000
  214       -0.000   0.000   0.000  -0.000
  215       -0.000  -0.000   0.000  -0.000
  216       -0.000   0.000   0.000   0.000
  217        0.000   0.000   0.000   0.000
  218       -0.000  -0.000   0.000  -0.000
  219        0.000   0.000   0.000   0.000
  220        0.000  -0.000   0.000   0.000
  221        0.000  -0.000   0.000  -0.000
  222       -0.000  -0.000   0.000  -0.000
  223       -0.000  -0.000   0.000  -0.000
  224        0.000   0.000   0.000   0.000
  225       -0.000   0.000   0.000  -0.000
  226        0.000  -0.000   0.000  -0.000
  227       -0.000  -0.000   0.000  -0.000
  228        0.000  -0.000   0.000   0.000
  229       -0.000   0.000   0.000  -0.000
  230        0.000   0.000   0.000   0.000
  231        0.000  -0.000   0.000  -0.000
  232       -0.000  -0.000   0.000  -0.000
  233       -0.000   0.000   0.000   0.000
  234        0.000   0.000   0.000   0.000
  235        0.000   0.000   0.000   0.000
  236       -0.000  -0.000   0.000  -0.000
  237       -0.000   0.000   0.000  -0.000
  238       -0.000   0.000   0.000  -0.000
  239       -0.000   0.000   0.000  -0.000
  240       -0.000   0.000   0.000   0.000
  241       -0.000   0.000   0.000  -0.000
  242        0.000   0.000   0.000   0.000
  243       -0.000   0.000   0.000  -0.000
  244       -0.000   0.000   0.000  -0.000
  245       -0.000   0.000   0.000   0.000
  246       -0.000  -0.000   0.000  -0.000
  247       -0.000   0.000   0.000  -0.000
  248        0.000  -0.000   0.000   0.000
  249       -0.000  -0.000   0.000  -0.000
  250       -0.000  -0.000   0.000  -0.000
  251        0.000  -0.000   0.000  -0.000
  252       -0.000   0.000   0.000   0.000
  253       -0.000   0.000   0.000  -0.000
  254       -0.000   0.000   0.000   0.000
  255        0.000  -0.000   0.000  -0.000
  256       -0.000  -0.000   0.000  -0.000
--------------------------------------------------
tot         -0.000   0.000  -0.000  -0.000
 

 total amount of memory used by VASP MPI-rank0   389546. kBytes
=======================================================================

   base      :      30000. kBytes
   nonlr-proj:      69333. kBytes
   fftplans  :      38736. kBytes
   grid      :      49123. kBytes
   one-center:        995. kBytes
   wavefun   :     201359. kBytes
 
  
  
 General timing and accounting informations for this job:
 ========================================================
  
                  Total CPU time used (sec):     1115.680
                            User time (sec):     1040.052
                          System time (sec):       75.629
                         Elapsed time (sec):     1135.440
  
                   Maximum memory used (kb):      705532.
                   Average memory used (kb):           0.
  
                          Minor page faults:        36291
                          Major page faults:            2
                 Voluntary context switches:       460519
