 vasp.5.4.4.18Apr17-6-g9f103f2a35 (build Apr 30 2017 20:10:35) complex          
  
 executed on             LinuxIFC date 2017.08.09  15:10:40
 running on   64 total cores
 distrk:  each k-point on   64 cores,    1 groups
 distr:  one band on NCORES_PER_BAND=   8 cores,    8 groups


--------------------------------------------------------------------------------------------------------


 INCAR:
 POTCAR:   PAW_PBE Ti_pv 07Sep2000                
 POTCAR:   PAW_PBE O 08Apr2002                    
 POTCAR:    PAW_PBE F 08Apr2002                   
 POTCAR:   PAW_PBE Ti_pv 07Sep2000                
   VRHFIN =Ti: d3 s1                                                            
   LEXCH  = PE                                                                  
   EATOM  =  1042.3781 eV,   76.6126 Ry                                         
                                                                                
   TITEL  = PAW_PBE Ti_pv 07Sep2000                                             
   LULTRA =        F    use ultrasoft PP ?                                      
   IUNSCR =        1    unscreen: 0-lin 1-nonlin 2-no                           
   RPACOR =    2.200    partial core radius                                     
   POMASS =   47.880; ZVAL   =   10.000    mass and valenz                      
   RCORE  =    2.500    outmost cutoff radius                                   
   RWIGS  =    2.500; RWIGS  =    1.323    wigner-seitz radius (au A)           
   ENMAX  =  222.338; ENMIN  =  166.753 eV                                      
   RCLOC  =    1.701    cutoff for local pot                                    
   LCOR   =        T    correct aug charges                                     
   LPAW   =        T    paw PP                                                  
   EAUG   =  482.848                                                            
   DEXC   =    -.008                                                            
   RMAX   =    3.092    core radius for proj-oper                               
   RAUG   =    1.300    factor for augmentation sphere                          
   RDEP   =    2.538    radius for radial grids                                 
   QCUT   =   -4.042; QGAM   =    8.085    optimization parameters              
                                                                                
   Description                                                                  
     l     E      TYP  RCUT    TYP  RCUT                                        
     1   .000     23  2.300                                                     
     1  -.100     23  2.300                                                     
     2   .000     23  2.500                                                     
     2   .000     23  2.500                                                     
     0   .000     23  2.500                                                     
     0  1.500     23  2.500                                                     
     3   .000      7   .000                                                     
  local pseudopotential read in
  partial core-charges read in
  atomic valenz-charges read in
  non local Contribution for L=           1  read in
    real space projection operators read in
  non local Contribution for L=           1  read in
    real space projection operators read in
  non local Contribution for L=           2  read in
    real space projection operators read in
  non local Contribution for L=           2  read in
    real space projection operators read in
  non local Contribution for L=           0  read in
    real space projection operators read in
  non local Contribution for L=           0  read in
    real space projection operators read in
    PAW grid and wavefunctions read in
 
   number of l-projection  operators is LMAX  =           6
   number of lm-projection operators is LMMAX =          18
 
 POTCAR:   PAW_PBE O 08Apr2002                    
   VRHFIN =O: s2p4                                                              
   LEXCH  = PE                                                                  
   EATOM  =   432.3788 eV,   31.7789 Ry                                         
                                                                                
   TITEL  = PAW_PBE O 08Apr2002                                                 
   LULTRA =        F    use ultrasoft PP ?                                      
   IUNSCR =        0    unscreen: 0-lin 1-nonlin 2-no                           
   RPACOR =     .000    partial core radius                                     
   POMASS =   16.000; ZVAL   =    6.000    mass and valenz                      
   RCORE  =    1.520    outmost cutoff radius                                   
   RWIGS  =    1.550; RWIGS  =     .820    wigner-seitz radius (au A)           
   ENMAX  =  400.000; ENMIN  =  300.000 eV                                      
   ICORE  =        2    local potential                                         
   LCOR   =        T    correct aug charges                                     
   LPAW   =        T    paw PP                                                  
   EAUG   =  605.392                                                            
   DEXC   =     .000                                                            
   RMAX   =    2.264    core radius for proj-oper                               
   RAUG   =    1.300    factor for augmentation sphere                          
   RDEP   =    1.550    radius for radial grids                                 
   QCUT   =   -5.520; QGAM   =   11.041    optimization parameters              
                                                                                
   Description                                                                  
     l     E      TYP  RCUT    TYP  RCUT                                        
     0   .000     23  1.200                                                     
     0  -.700     23  1.200                                                     
     1   .000     23  1.520                                                     
     1   .600     23  1.520                                                     
     2   .000      7  1.500                                                     
  local pseudopotential read in
  atomic valenz-charges read in
  non local Contribution for L=           0  read in
    real space projection operators read in
  non local Contribution for L=           0  read in
    real space projection operators read in
  non local Contribution for L=           1  read in
    real space projection operators read in
  non local Contribution for L=           1  read in
    real space projection operators read in
    PAW grid and wavefunctions read in
 
   number of l-projection  operators is LMAX  =           4
   number of lm-projection operators is LMMAX =           8
 
 POTCAR:    PAW_PBE F 08Apr2002                   
   VRHFIN =F: s2p5                                                              
   LEXCH  = PE                                                                  
   EATOM  =   659.6475 eV,   48.4827 Ry                                         
                                                                                
   TITEL  = PAW_PBE F 08Apr2002                                                 
   LULTRA =        F    use ultrasoft PP ?                                      
   IUNSCR =        1    unscreen: 0-lin 1-nonlin 2-no                           
   RPACOR =    1.200    partial core radius                                     
   POMASS =   18.998; ZVAL   =    7.000    mass and valenz                      
   RCORE  =    1.520    outmost cutoff radius                                   
   RWIGS  =    1.500; RWIGS  =    0.794    wigner-seitz radius (au A)           
   ENMAX  =  400.000; ENMIN  =  300.000 eV                                      
   ICORE  =        2    local potential                                         
   LCOR   =        T    correct aug charges                                     
   LPAW   =        T    paw PP                                                  
   EAUG   =  613.614                                                            
   RMAX   =    1.555    core radius for proj-oper                               
   RAUG   =    1.300    factor for augmentation sphere                          
   RDEP   =    1.539    radius for radial grids                                 
   RDEPT  =    1.299    core radius for aug-charge                              
                                                                                
   Atomic configuration                                                         
    4 entries                                                                   
     n  l   j            E        occ.                                          
     1  0  0.50      -663.3661   2.0000                                         
     2  0  0.50       -29.8995   2.0000                                         
     2  1  0.50       -11.1114   5.0000                                         
     3  2  1.50       -10.8847   0.0000                                         
   Description                                                                  
     l       E           TYP  RCUT    TYP  RCUT                                 
     0    -29.8995018     23  1.200                                             
     0     -9.5240782     23  1.200                                             
     1    -11.1113914     23  1.520                                             
     1      1.3605826     23  1.520                                             
     2    -10.8846608      7  1.500                                             
  local pseudopotential read in
  partial core-charges read in
  partial kinetic energy density read in
  atomic valenz-charges read in
  non local Contribution for L=           0  read in
    real space projection operators read in
  non local Contribution for L=           0  read in
    real space projection operators read in
  non local Contribution for L=           1  read in
    real space projection operators read in
  non local Contribution for L=           1  read in
    real space projection operators read in
    PAW grid and wavefunctions read in
 
   number of l-projection  operators is LMAX  =           4
   number of lm-projection operators is LMMAX =           8
 
 Optimization of the real space projectors (new method)

 maximal supplied QI-value         = 15.12
 optimisation between [QCUT,QGAM] = [ 13.45, 27.06] = [ 50.69,205.06] Ry 
 Optimized for a Real-space Cutoff    1.49 Angstroem

   l    n(q)    QCUT    max X(q) W(low)/X(q) W(high)/X(q)  e(spline) 
   1     12    13.455     4.841    0.13E-05    0.83E-06    0.56E-07
   1     12    13.455     5.701    0.32E-04    0.25E-04    0.17E-06
   2     11    13.455     4.569    0.64E-05    0.34E-05    0.50E-07
   2     11    13.455    32.276    0.49E-04    0.38E-04    0.46E-06
   0     12    13.455    30.046    0.17E-04    0.41E-05    0.51E-07
   0     12    13.455    45.433    0.12E-04    0.27E-04    0.38E-06
 Optimization of the real space projectors (new method)

 maximal supplied QI-value         = 24.76
 optimisation between [QCUT,QGAM] = [ 13.37, 26.98] = [ 50.04,203.89] Ry 
 Optimized for a Real-space Cutoff    1.17 Angstroem

   l    n(q)    QCUT    max X(q) W(low)/X(q) W(high)/X(q)  e(spline) 
   0      9    13.368     4.192    0.20E-04    0.58E-05    0.56E-07
   0      9    13.368     8.473    0.60E-04    0.52E-04    0.21E-06
   1      9    13.368     2.474    0.22E-04    0.17E-04    0.28E-07
   1      9    13.368     3.912    0.94E-04    0.97E-04    0.20E-06
 Optimization of the real space projectors (new method)

 maximal supplied QI-value         = 24.76
 optimisation between [QCUT,QGAM] = [ 13.37, 26.98] = [ 50.04,203.89] Ry 
 Optimized for a Real-space Cutoff    1.17 Angstroem

   l    n(q)    QCUT    max X(q) W(low)/X(q) W(high)/X(q)  e(spline) 
   0      9    13.368    14.049    0.39E-04    0.34E-04    0.16E-06
   0      9    13.368     8.945    0.54E-04    0.47E-04    0.20E-06
   1      9    13.368     7.086    0.99E-04    0.10E-03    0.23E-06
   1      9    13.368     6.747    0.86E-04    0.89E-04    0.21E-06

 ----------------------------------------------------------------------------- 
|                                                                             |
|  ADVICE TO THIS USER RUNNING 'VASP/VAMP'   (HEAR YOUR MASTER'S VOICE ...):  |
|                                                                             |
|      You enforced a specific xc-type in the INCAR file,                     |
|      a different type was found on the POTCAR file                          |
|          I HOPE YOU KNOW, WHAT YOU ARE  DOING                               |
|                                                                             |
 ----------------------------------------------------------------------------- 

 PAW_PBE Ti_pv 07Sep2000                :
 energy of atom  1       EATOM=-1042.3781
 kinetic energy error for atom=    0.0006 (will be added to EATOM!!)
 PAW_PBE O 08Apr2002                    :
 energy of atom  2       EATOM= -432.3788
 kinetic energy error for atom=    0.0091 (will be added to EATOM!!)
  PAW_PBE F 08Apr2002                   :
 energy of atom  3       EATOM= -659.6475
 kinetic energy error for atom=    0.0140 (will be added to EATOM!!)
 
 
 POSCAR: TiOF2 2x2x2 config 0047                 
  positions in direct lattice
  velocities in cartesian coordinates
 exchange correlation table for  LEXCH =       14
   RHO(1)=    0.500       N(1)  =     2000
   RHO(2)=  100.500       N(2)  =     4000

 VTST: version 3.1, (03/28/14)

 CHAIN: initializing optimizer
 
 OPT: Using VASP QUASI-newton optimizer
 CHAIN: Read ICHAIN            0
 
 POSCAR: TiOF2 2x2x2 config 0047                 
  positions in direct lattice
  velocities in cartesian coordinates
 


--------------------------------------------------------------------------------------------------------


 ion  position               nearest neighbor table
   1  0.000  0.000  1.000-  17 1.87  21 1.87  25 1.88  30 1.88  29 1.88  27 1.88
   2  0.000  0.000  0.500-  18 1.90  22 1.90  29 1.99  26 1.99  30 1.99  28 1.99
   3  0.000  0.500  0.000-  19 1.90  23 1.90  32 1.99  27 1.99  31 1.99  25 1.99
   4  0.000  0.500  0.500-  20 1.87  24 1.87  31 1.88  28 1.88  26 1.88  32 1.88
   5  0.500  0.000  0.000-   9 1.93  13 1.93  14 1.93  11 1.93  21 2.12  17 2.12
   6  0.500  0.000  0.500-  13 1.93  10 1.93  12 1.93  14 1.93  18 2.08  22 2.08
   7  0.500  0.500  1.000-  16 1.93  11 1.93  15 1.93   9 1.93  23 2.08  19 2.08
   8  0.500  0.500  0.500-  12 1.93  16 1.93  15 1.93  10 1.93  24 2.12  20 2.12
   9  0.500  0.249  0.000-   5 1.93   7 1.93
  10  0.500  0.251  0.500-   8 1.93   6 1.93
  11  0.500  0.751  1.000-   5 1.93   7 1.93
  12  0.500  0.749  0.500-   8 1.93   6 1.93
  13  0.500  1.000  0.249-   5 1.93   6 1.93
  14  0.500  1.000  0.751-   5 1.93   6 1.93
  15  0.500  0.500  0.251-   8 1.93   7 1.93
  16  0.500  0.500  0.749-   8 1.93   7 1.93
  17  0.234  1.000  0.000-   1 1.87   5 2.12
  18  0.239  0.000  0.500-   2 1.90   6 2.08
  19  0.239  0.500  1.000-   3 1.90   7 2.08
  20  0.234  0.500  0.500-   4 1.87   8 2.12
  21  0.766  1.000  0.000-   1 1.87   5 2.12
  22  0.761  0.000  0.500-   2 1.90   6 2.08
  23  0.761  0.500  1.000-   3 1.90   7 2.08
  24  0.766  0.500  0.500-   4 1.87   8 2.12
  25  0.000  0.243  0.000-   1 1.88   3 1.99
  26  0.000  0.257  0.500-   4 1.88   2 1.99
  27  1.000  0.757  1.000-   1 1.88   3 1.99
  28  1.000  0.743  0.500-   4 1.88   2 1.99
  29  0.000  0.000  0.243-   1 1.88   2 1.99
  30  1.000  1.000  0.757-   1 1.88   2 1.99
  31  1.000  0.500  0.257-   4 1.88   3 1.99
  32  1.000  0.500  0.743-   4 1.88   3 1.99
 

IMPORTANT INFORMATION: All symmetrisations will be switched off!
NOSYMM: (Re-)initialisation of all symmetry stuff for point group C_1.

 
 
 KPOINTS: Title                                   

Automatic generation of k-mesh.
Space group operators:
 irot       det(A)        alpha          n_x          n_y          n_z        tau_x        tau_y        tau_z
    1     1.000000     0.000001     1.000000     0.000000     0.000000     0.000000     0.000000     0.000000
 
 Subroutine IBZKPT returns following result:
 ===========================================
 
 Found     32 irreducible k-points:
 
 Following reciprocal coordinates:
            Coordinates               Weight
  0.125000  0.125000  0.125000      2.000000
  0.375000  0.125000  0.125000      2.000000
 -0.375000  0.125000  0.125000      2.000000
 -0.125000  0.125000  0.125000      2.000000
  0.125000  0.375000  0.125000      2.000000
  0.375000  0.375000  0.125000      2.000000
 -0.375000  0.375000  0.125000      2.000000
 -0.125000  0.375000  0.125000      2.000000
  0.125000 -0.375000  0.125000      2.000000
  0.375000 -0.375000  0.125000      2.000000
 -0.375000 -0.375000  0.125000      2.000000
 -0.125000 -0.375000  0.125000      2.000000
  0.125000 -0.125000  0.125000      2.000000
  0.375000 -0.125000  0.125000      2.000000
 -0.375000 -0.125000  0.125000      2.000000
 -0.125000 -0.125000  0.125000      2.000000
  0.125000  0.125000  0.375000      2.000000
  0.375000  0.125000  0.375000      2.000000
 -0.375000  0.125000  0.375000      2.000000
 -0.125000  0.125000  0.375000      2.000000
  0.125000  0.375000  0.375000      2.000000
  0.375000  0.375000  0.375000      2.000000
 -0.375000  0.375000  0.375000      2.000000
 -0.125000  0.375000  0.375000      2.000000
  0.125000 -0.375000  0.375000      2.000000
  0.375000 -0.375000  0.375000      2.000000
 -0.375000 -0.375000  0.375000      2.000000
 -0.125000 -0.375000  0.375000      2.000000
  0.125000 -0.125000  0.375000      2.000000
  0.375000 -0.125000  0.375000      2.000000
 -0.375000 -0.125000  0.375000      2.000000
 -0.125000 -0.125000  0.375000      2.000000
 
 Following cartesian coordinates:
            Coordinates               Weight
  0.015694  0.016196  0.016196      2.000000
  0.047083  0.016196  0.016196      2.000000
 -0.047083  0.016196  0.016196      2.000000
 -0.015694  0.016196  0.016196      2.000000
  0.015694  0.048575  0.016207      2.000000
  0.047083  0.048575  0.016207      2.000000
 -0.047083  0.048575  0.016207      2.000000
 -0.015694  0.048575  0.016207      2.000000
  0.015694 -0.048564  0.016173      2.000000
  0.047083 -0.048564  0.016173      2.000000
 -0.047083 -0.048564  0.016173      2.000000
 -0.015694 -0.048564  0.016173      2.000000
  0.015694 -0.016184  0.016184      2.000000
  0.047083 -0.016184  0.016184      2.000000
 -0.047083 -0.016184  0.016184      2.000000
 -0.015694 -0.016184  0.016184      2.000000
  0.015694  0.016207  0.048575      2.000000
  0.047083  0.016207  0.048575      2.000000
 -0.047083  0.016207  0.048575      2.000000
 -0.015694  0.016207  0.048575      2.000000
  0.015694  0.048587  0.048587      2.000000
  0.047083  0.048587  0.048587      2.000000
 -0.047083  0.048587  0.048587      2.000000
 -0.015694  0.048587  0.048587      2.000000
  0.015694 -0.048552  0.048552      2.000000
  0.047083 -0.048552  0.048552      2.000000
 -0.047083 -0.048552  0.048552      2.000000
 -0.015694 -0.048552  0.048552      2.000000
  0.015694 -0.016173  0.048564      2.000000
  0.047083 -0.016173  0.048564      2.000000
 -0.047083 -0.016173  0.048564      2.000000
 -0.015694 -0.016173  0.048564      2.000000
 


--------------------------------------------------------------------------------------------------------




 Dimension of arrays:
   k-points           NKPTS =     32   k-points in BZ     NKDIM =     32   number of bands    NBANDS=    160
   number of dos      NEDOS =   3001   number of ions     NIONS =     32
   non local maximal  LDIM  =      6   non local SUM 2l+1 LMDIM =     18
   total plane-waves  NPLWV = 343000
   max r-space proj   IRMAX =  10017   max aug-charges    IRDMAX= 224551
   dimension x,y,z NGX =    70 NGY =   70 NGZ =   70
   dimension x,y,z NGXF=   140 NGYF=  140 NGZF=  140
   support grid    NGXF=   280 NGYF=  280 NGZF=  280
   ions per type =               8   8  16
   NGX,Y,Z   is equivalent  to a cutoff of  14.61, 15.07, 15.07 a.u.
   NGXF,Y,Z  is equivalent  to a cutoff of  29.22, 30.14, 30.14 a.u.

 SYSTEM =  LTO                                     
 POSCAR =  TiOF2 2x2x2 config 0047                 

 Startparameter for this run:
   NWRITE =      2    write-flag & timer
   PREC   = accura    normal or accurate (medium, high low for compatibility)
   ISTART =      1    job   : 0-new  1-cont  2-samecut
   ICHARG =      0    charge: 1-file 2-atom 10-const
   ISPIN  =      2    spin polarized calculation?
   LNONCOLLINEAR =      F non collinear calculations
   LSORBIT =      F    spin-orbit coupling
   INIWAV =      1    electr: 0-lowe 1-rand  2-diag
   LASPH  =      T    aspherical Exc in radial PAW
   METAGGA=      F    non-selfconsistent MetaGGA calc.

 Electronic Relaxation 1
   ENCUT  =  700.0 eV  51.45 Ry    7.17 a.u.  17.18 16.66 16.66*2*pi/ulx,y,z
   ENINI  =  700.0     initial cutoff
   ENAUG  =  613.6 eV  augmentation charge cutoff
   NELM   =     60;   NELMIN=  2; NELMDL=  0     # of ELM steps 
   EDIFF  = 0.1E-05   stopping-criterion for ELM
   LREAL  =      T    real-space projection
   NLSPLINE    = F    spline interpolate recip. space projectors
   LCOMPAT=      F    compatible to vasp.4.4
   GGA_COMPAT  = T    GGA compatible to vasp.4.4-vasp.4.6
   LMAXPAW     = -100 max onsite density
   LMAXMIX     =    4 max onsite mixed and CHGCAR
   VOSKOWN=      0    Vosko Wilk Nusair interpolation
   ROPT   =   -0.00010  -0.00010  -0.00010
 Ionic relaxation
   EDIFFG = -.1E-01   stopping-criterion for IOM
   NSW    =    100    number of steps for IOM
   NBLOCK =      1;   KBLOCK =    100    inner block; outer block 
   IBRION =      1    ionic relax: 0-MD 1-quasi-New 2-CG
   NFREE  =      0    steps in history (QN), initial steepest desc. (CG)
   ISIF   =      3    stress and relaxation
   IWAVPR =     11    prediction:  0-non 1-charg 2-wave 3-comb
   ISYM   =      0    0-nonsym 1-usesym 2-fastsym
   LCORR  =      T    Harris-Foulkes like correction to forces

   POTIM  = 0.5000    time-step for ionic-motion
   TEIN   =    0.0    initial temperature
   TEBEG  =    0.0;   TEEND  =   0.0 temperature during run
   SMASS  =  -3.00    Nose mass-parameter (am)
   estimated Nose-frequenzy (Omega)   =  0.10E-29 period in steps =****** mass=  -0.145E-26a.u.
   SCALEE = 1.0000    scale energy and forces
   NPACO  =    256;   APACO  = 16.0  distance and # of slots for P.C.
   PSTRESS=    0.0 pullay stress

  Mass of Ions in am
   POMASS =  47.88 16.00 19.00
  Ionic Valenz
   ZVAL   =  10.00  6.00  7.00
  Atomic Wigner-Seitz radii
   RWIGS  =  -1.00 -1.00 -1.00
  virtual crystal weights 
   VCA    =   1.00  1.00  1.00
   NELECT =     240.0000    total number of electrons
   NUPDOWN=      -1.0000    fix difference up-down

 DOS related values:
   EMIN   =  10.00;   EMAX   =-10.00  energy-range for DOS
   EFERMI =   0.00
   ISMEAR =     0;   SIGMA  =   0.01  broadening in eV -4-tet -1-fermi 0-gaus

 Electronic relaxation 2 (details)
   IALGO  =     38    algorithm
   LDIAG  =      T    sub-space diagonalisation (order eigenvalues)
   LSUBROT=      F    optimize rotation matrix (better conditioning)
   TURBO    =      0    0=normal 1=particle mesh
   IRESTART =      0    0=no restart 2=restart with 2 vectors
   NREBOOT  =      0    no. of reboots
   NMIN     =      0    reboot dimension
   EREF     =   0.00    reference energy to select bands
   IMIX   =      4    mixing-type and parameters
     AMIX     =   0.40;   BMIX     =  1.00
     AMIX_MAG =   1.60;   BMIX_MAG =  1.00
     AMIN     =   0.10
     WC   =   100.;   INIMIX=   1;  MIXPRE=   1;  MAXMIX= -45

 Intra band minimization:
   WEIMIN = 0.0010     energy-eigenvalue tresh-hold
   EBREAK =  0.16E-08  absolut break condition
   DEPER  =   0.30     relativ break condition  

   TIME   =   0.40     timestep for ELM

  volume/ion in A,a.u.               =      14.84       100.13
  Fermi-wavevector in a.u.,A,eV,Ry     =   1.304095  2.464383 23.138953  1.700665
  Thomas-Fermi vector in A             =   2.435054
 
 Write flags
   LWAVE        =      T    write WAVECAR
   LDOWNSAMPLE  =      F    k-point downsampling of WAVECAR
   LCHARG       =      T    write CHGCAR
   LVTOT        =      F    write LOCPOT, total local potential
   LVHAR        =      F    write LOCPOT, Hartree potential only
   LELF         =      F    write electronic localiz. function (ELF)
   LORBIT       =     11    0 simple, 1 ext, 2 COOP (PROOUT), +10 PAW based schemes


 Dipole corrections
   LMONO  =      F    monopole corrections only (constant potential shift)
   LDIPOL =      F    correct potential (dipole corrections)
   IDIPOL =      0    1-x, 2-y, 3-z, 4-all directions 
   EPSILON=  1.0000000 bulk dielectric constant

 LDA+U is selected, type is set to LDAUTYPE =  2
   angular momentum for each species LDAUL =     2   -1   -1
   U (eV)           for each species LDAUU =   4.2  0.0  0.0
   J (eV)           for each species LDAUJ =   0.0  0.0  0.0
 Exchange correlation treatment:
   GGA     =    PS    GGA type
   LEXCH   =    14    internal setting for exchange type
   VOSKOWN=      0    Vosko Wilk Nusair interpolation
   LHFCALC =     F    Hartree Fock is set to
   LHFONE  =     F    Hartree Fock one center treatment
   AEXX    =    0.0000 exact exchange contribution

 Linear response parameters
   LEPSILON=     F    determine dielectric tensor
   LRPA    =     F    only Hartree local field effects (RPA)
   LNABLA  =     F    use nabla operator in PAW spheres
   LVEL    =     F    velocity operator in full k-point grid
   LINTERFAST=   F  fast interpolation
   KINTER  =     0    interpolate to denser k-point grid
   CSHIFT  =0.1000    complex shift for real part using Kramers Kronig
   OMEGAMAX=  -1.0    maximum frequency
   DEG_THRESHOLD= 0.2000000E-02 threshold for treating states as degnerate
   RTIME   =   -0.100 relaxation time in fs
  (WPLASMAI=    0.000 imaginary part of plasma frequency in eV, 0.658/RTIME)
   DFIELD  = 0.0000000 0.0000000 0.0000000 field for delta impulse in time
 
 Orbital magnetization related:
   ORBITALMAG=     F  switch on orbital magnetization
   LCHIMAG   =     F  perturbation theory with respect to B field
   DQ        =  0.001000  dq finite difference perturbation B field
   LLRAUG    =     F  two centre corrections for induced B field



--------------------------------------------------------------------------------------------------------


 quasi-Newton-method for relaxation of ions
 charge density and potential will be updated during run
 spin polarized calculation
 Variant of blocked Davidson
 Davidson routine will perform the subspace rotation
 perform sub-space diagonalisation
    after iterative eigenvector-optimisation
 modified Broyden-mixing scheme, WC =      100.0
 initial mixing is a Kerker type mixing with AMIX =  0.4000 and BMIX =      1.0000
 Hartree-type preconditioning will be used
 using additional bands           40
 real space projection scheme for non local part
 use partial core corrections
 calculate Harris-corrections to forces 
   (improved forces if not selfconsistent)
 use gradient corrections 
 use of overlap-Matrix (Vanderbilt PP)
 Gauss-broadening in eV      SIGMA  =   0.01


--------------------------------------------------------------------------------------------------------


  energy-cutoff  :      700.00
  volume of cell :      474.80
      direct lattice vectors                 reciprocal lattice vectors
     7.964736104 -0.000000125 -0.000000505     0.125553438  0.000000002  0.000000008
    -0.000000127  7.720918286 -0.002746110     0.000000002  0.129518289  0.000045984
    -0.000000463 -0.002741195  7.720888088     0.000000008  0.000046066  0.129518796

  length of vectors
     7.964736104  7.720918774  7.720888575     0.125553438  0.129518297  0.129518804


 
 old parameters found on file WAVECAR:
  energy-cutoff  :      700.00
  volume of cell :      470.92
      direct lattice vectors                 reciprocal lattice vectors
     7.964461998 -0.000000106 -0.000002060     0.125557759  0.000000002  0.000000032
    -0.000000106  7.689400549 -0.000003235     0.000000002  0.130049149  0.000000055
    -0.000001980 -0.000003235  7.689427058     0.000000034  0.000000055  0.130048701

  length of vectors

 
 k-points in units of 2pi/SCALE and weight: Title                                   
   0.01569418  0.01619554  0.01619560       0.031
   0.04708254  0.01619555  0.01619560       0.031
  -0.04708254  0.01619554  0.01619559       0.031
  -0.01569418  0.01619554  0.01619560       0.031
   0.01569418  0.04857512  0.01620709       0.031
   0.04708254  0.04857512  0.01620710       0.031
  -0.04708254  0.04857512  0.01620709       0.031
  -0.01569418  0.04857512  0.01620709       0.031
   0.01569418 -0.04856360  0.01617261       0.031
   0.04708254 -0.04856360  0.01617261       0.031
  -0.04708254 -0.04856360  0.01617260       0.031
  -0.01569418 -0.04856360  0.01617260       0.031
   0.01569418 -0.01618403  0.01618410       0.031
   0.04708254 -0.01618403  0.01618410       0.031
  -0.04708254 -0.01618403  0.01618410       0.031
  -0.01569418 -0.01618403  0.01618410       0.031
   0.01569418  0.01620706  0.04857530       0.031
   0.04708254  0.01620706  0.04857530       0.031
  -0.04708254  0.01620706  0.04857529       0.031
  -0.01569418  0.01620706  0.04857530       0.031
   0.01569418  0.04858663  0.04858679       0.031
   0.04708254  0.04858663  0.04858680       0.031
  -0.04708254  0.04858663  0.04858679       0.031
  -0.01569418  0.04858663  0.04858679       0.031
   0.01569418 -0.04855208  0.04855231       0.031
   0.04708254 -0.04855208  0.04855231       0.031
  -0.04708254 -0.04855208  0.04855230       0.031
  -0.01569418 -0.04855208  0.04855230       0.031
   0.01569418 -0.01617251  0.04856380       0.031
   0.04708254 -0.01617251  0.04856380       0.031
  -0.04708254 -0.01617251  0.04856380       0.031
  -0.01569418 -0.01617251  0.04856380       0.031
 
 k-points in reciprocal lattice and weights: Title                                   
   0.12500000  0.12500000  0.12500000       0.031
   0.37500000  0.12500000  0.12500000       0.031
  -0.37500000  0.12500000  0.12500000       0.031
  -0.12500000  0.12500000  0.12500000       0.031
   0.12500000  0.37500000  0.12500000       0.031
   0.37500000  0.37500000  0.12500000       0.031
  -0.37500000  0.37500000  0.12500000       0.031
  -0.12500000  0.37500000  0.12500000       0.031
   0.12500000 -0.37500000  0.12500000       0.031
   0.37500000 -0.37500000  0.12500000       0.031
  -0.37500000 -0.37500000  0.12500000       0.031
  -0.12500000 -0.37500000  0.12500000       0.031
   0.12500000 -0.12500000  0.12500000       0.031
   0.37500000 -0.12500000  0.12500000       0.031
  -0.37500000 -0.12500000  0.12500000       0.031
  -0.12500000 -0.12500000  0.12500000       0.031
   0.12500000  0.12500000  0.37500000       0.031
   0.37500000  0.12500000  0.37500000       0.031
  -0.37500000  0.12500000  0.37500000       0.031
  -0.12500000  0.12500000  0.37500000       0.031
   0.12500000  0.37500000  0.37500000       0.031
   0.37500000  0.37500000  0.37500000       0.031
  -0.37500000  0.37500000  0.37500000       0.031
  -0.12500000  0.37500000  0.37500000       0.031
   0.12500000 -0.37500000  0.37500000       0.031
   0.37500000 -0.37500000  0.37500000       0.031
  -0.37500000 -0.37500000  0.37500000       0.031
  -0.12500000 -0.37500000  0.37500000       0.031
   0.12500000 -0.12500000  0.37500000       0.031
   0.37500000 -0.12500000  0.37500000       0.031
  -0.37500000 -0.12500000  0.37500000       0.031
  -0.12500000 -0.12500000  0.37500000       0.031
 
 position of ions in fractional coordinates (direct lattice) 
   0.00000002  0.00001112  0.99999271
   0.00000000  0.00000034  0.50000049
   0.00000001  0.49999978  0.00000154
   0.00000003  0.50000803  0.49998964
   0.50000000  0.00000303  0.00000186
   0.49999999  0.00000434  0.49999026
   0.50000000  0.50000575  0.99999084
   0.49999998  0.50000552  0.50000151
   0.50000011  0.24941222  0.00001193
   0.49999998  0.25057895  0.50000115
   0.50000000  0.75057929  0.99999723
   0.50000001  0.74941529  0.50000851
   0.49999998  0.99999280  0.24941630
   0.50000001  0.99998344  0.75058583
   0.50000000  0.49998549  0.25058286
   0.49999999  0.49999414  0.74941992
   0.23434467  0.99998313  0.00001976
   0.23902939  0.00002633  0.49997825
   0.23902938  0.50002569  0.99998044
   0.23434443  0.49998049  0.50001884
   0.76565531  0.99998312  0.00001974
   0.76097059  0.00002639  0.49997822
   0.76097062  0.50002572  0.99998045
   0.76565553  0.49998047  0.50001880
   0.00000001  0.24286843  0.00007491
   0.00000001  0.25712242  0.49992300
   0.99999999  0.75712215  0.99992066
   0.99999998  0.74286870  0.50007181
   0.00000002  0.00006045  0.24287779
   0.99999997  0.99994323  0.75713231
   1.00000000  0.49994239  0.25713346
   0.99999999  0.50006134  0.74287899
 
 position of ions in cartesian coordinates  (Angst):
  -0.00000032 -0.00265533  7.72083176
  -0.00000021 -0.00136794  3.86044783
   0.00000004  3.86045745 -0.00136116
  -0.00000008  3.85915059  3.85899096
   3.98236801  0.00002336  0.00001410
   3.98236772 -0.00133711  3.86036857
   3.98236753  3.85776227  7.71944404
   3.98236762  3.85913111  3.85908234
   3.98236893  1.92569126 -0.00059303
   3.98236767  1.93332897  3.85976452
   3.98236752  5.79242015  7.71880530
   3.98236779  5.78480351  3.85845151
   3.98236765  7.72017894  1.92296900
   3.98236763  7.71873290  5.79244287
   3.98236789  3.85966012  1.93334892
   3.98236757  3.85835949  5.78481403
   1.86649336  7.72078794 -0.00259365
   1.90380576 -0.00116727  3.86027592
   1.90380540  3.85791633  7.71936384
   1.86649128  3.85893781  3.85921637
   6.09824235  7.72078782 -0.00259400
   6.06092970 -0.00116684  3.86027539
   6.06092962  3.85791650  7.71936363
   6.09824393  3.85893764  3.85921583
   0.00000001  1.87516707 -0.00008854
  -0.00000021  1.98385078  3.85914345
   7.96473544  5.84293718  7.71819584
   7.96473564  5.73425760  3.85895796
   0.00000002 -0.00019906  1.87523210
   7.96473541  7.71840439  5.84298738
   7.96473592  3.85930939  1.98392528
   7.96473562  3.85889628  5.73431182
 


--------------------------------------------------------------------------------------------------------


 k-point  1 :   0.1250 0.1250 0.1250  plane waves:   19961
 k-point  2 :   0.3750 0.1250 0.1250  plane waves:   19989
 k-point  3 :  -0.3750 0.1250 0.1250  plane waves:   19989
 k-point  4 :  -0.1250 0.1250 0.1250  plane waves:   19961
 k-point  5 :   0.1250 0.3750 0.1250  plane waves:   19964
 k-point  6 :   0.3750 0.3750 0.1250  plane waves:   19954
 k-point  7 :  -0.3750 0.3750 0.1250  plane waves:   19954
 k-point  8 :  -0.1250 0.3750 0.1250  plane waves:   19964
 k-point  9 :   0.1250-0.3750 0.1250  plane waves:   19971
 k-point 10 :   0.3750-0.3750 0.1250  plane waves:   19958
 k-point 11 :  -0.3750-0.3750 0.1250  plane waves:   19958
 k-point 12 :  -0.1250-0.3750 0.1250  plane waves:   19971
 k-point 13 :   0.1250-0.1250 0.1250  plane waves:   19957
 k-point 14 :   0.3750-0.1250 0.1250  plane waves:   20004
 k-point 15 :  -0.3750-0.1250 0.1250  plane waves:   20004
 k-point 16 :  -0.1250-0.1250 0.1250  plane waves:   19957
 k-point 17 :   0.1250 0.1250 0.3750  plane waves:   19964
 k-point 18 :   0.3750 0.1250 0.3750  plane waves:   19954
 k-point 19 :  -0.3750 0.1250 0.3750  plane waves:   19954
 k-point 20 :  -0.1250 0.1250 0.3750  plane waves:   19964
 k-point 21 :   0.1250 0.3750 0.3750  plane waves:   19970
 k-point 22 :   0.3750 0.3750 0.3750  plane waves:   19960
 k-point 23 :  -0.3750 0.3750 0.3750  plane waves:   19960
 k-point 24 :  -0.1250 0.3750 0.3750  plane waves:   19970
 k-point 25 :   0.1250-0.3750 0.3750  plane waves:   19962
 k-point 26 :   0.3750-0.3750 0.3750  plane waves:   19966
 k-point 27 :  -0.3750-0.3750 0.3750  plane waves:   19966
 k-point 28 :  -0.1250-0.3750 0.3750  plane waves:   19962
 k-point 29 :   0.1250-0.1250 0.3750  plane waves:   19971
 k-point 30 :   0.3750-0.1250 0.3750  plane waves:   19958
 k-point 31 :  -0.3750-0.1250 0.3750  plane waves:   19958
 k-point 32 :  -0.1250-0.1250 0.3750  plane waves:   19971

 maximum and minimum number of plane-waves per node :      2530     2465

 maximum number of plane-waves:     20004
 maximum index in each direction: 
   IXMAX=   17   IYMAX=   17   IZMAX=   16
   IXMIN=  -17   IYMIN=  -17   IZMIN=  -17


 real space projection operators:
  total allocation   :      17990.62 KBytes
  max/ min on nodes  :       2392.69       1859.44


 parallel 3D FFT for wavefunctions:
    minimum data exchange during FFTs selected (reduces bandwidth)
 parallel 3D FFT for charge:
    minimum data exchange during FFTs selected (reduces bandwidth)


 total amount of memory used by VASP MPI-rank0   107911. kBytes
=======================================================================

   base      :      30000. kBytes
   nonlr-proj:       8316. kBytes
   fftplans  :       8424. kBytes
   grid      :       8783. kBytes
   one-center:        124. kBytes
   wavefun   :      52264. kBytes
 
     INWAV:  cpu time   30.7193: real time   40.5717
 Broyden mixing: mesh for mixing (old mesh)
   NGX = 35   NGY = 33   NGZ = 33
  (NGX  =140   NGY  =140   NGZ  =140)
  gives a total of  38115 points

 charge density for first step will be calculated from the start-wavefunctions


--------------------------------------------------------------------------------------------------------


 Maximum index for non-local projection operator         1347
 Maximum index for augmentation-charges         7026 (set IRDMAX)


--------------------------------------------------------------------------------------------------------


 initial charge from wavefunction
 First call to EWALD:  gamma=   0.227
 Maximum number of real-space cells 3x 3x 3
 Maximum number of reciprocal cells 3x 3x 3

    FEWALD:  cpu time    0.0030: real time    0.0037


--------------------------------------- Iteration      1(   1)  ---------------------------------------


    POTLOK:  cpu time    0.1450: real time    0.2053
    SETDIJ:  cpu time    0.8449: real time    0.8429
     EDDAV:  cpu time   28.2317: real time   28.2701
       DOS:  cpu time    0.0040: real time    0.0032
    CHARGE:  cpu time    1.1668: real time    1.1657
    MIXING:  cpu time    0.0090: real time    0.0089
    --------------------------------------------
      LOOP:  cpu time   30.4014: real time   30.4961

 eigenvalue-minimisations  : 20480
 total energy-change (2. order) :-0.2062652E+03  (-0.9804047E-02)
 number of electron     240.0000004 magnetization       2.0000000
 augmentation part       62.0596028 magnetization       1.1574428

 Broyden mixing:
  rms(total) = 0.22265E-02    rms(broyden)= 0.21970E-02
  rms(prec ) = 0.34781E-02
  weight for this iteration     100.00

 Free energy of the ion-electron system (eV)
  ---------------------------------------------------
  alpha Z        PSCENC =       737.50769167
  Ewald energy   TEWEN  =    -12549.54148740
  -Hartree energ DENC   =     -8429.92224233
  -exchange      EXHF   =         0.00000000
  -V(xc)+E(xc)   XCENC  =      1118.62233683
  PAW double counting   =     17947.95008545   -18066.70732162
  entropy T*S    EENTRO =        -0.00000000
  eigenvalues    EBANDS =     -3266.52743433
  atomic energy  EATOM  =     22302.35321627
  Solvation  Ediel_sol  =         0.00000000
  ---------------------------------------------------
  free energy    TOTEN  =      -206.26515547 eV

  energy without entropy =     -206.26515547  energy(sigma->0) =     -206.26515547


--------------------------------------------------------------------------------------------------------




--------------------------------------- Iteration      1(   2)  ---------------------------------------


    POTLOK:  cpu time    0.1630: real time    0.1791
    SETDIJ:  cpu time    0.8399: real time    0.8374
     EDDAV:  cpu time   33.3069: real time   33.3146
       DOS:  cpu time    0.0040: real time    0.0034
    CHARGE:  cpu time    1.1708: real time    1.1690
    MIXING:  cpu time    0.0030: real time    0.0020
    --------------------------------------------
      LOOP:  cpu time   35.4876: real time   35.5055

 eigenvalue-minimisations  : 25264
 total energy-change (2. order) :-0.1709674E-04  (-0.1875143E-04)
 number of electron     240.0000004 magnetization       2.0000000
 augmentation part       62.0596174 magnetization       1.1574471

 Broyden mixing:
  rms(total) = 0.42955E-02    rms(broyden)= 0.42932E-02
  rms(prec ) = 0.69802E-02
  weight for this iteration     100.00

 eigenvalues of (default mixing * dielectric matrix)
  average eigenvalue GAMMA=   0.3231
  0.3231

 Free energy of the ion-electron system (eV)
  ---------------------------------------------------
  alpha Z        PSCENC =       737.50769167
  Ewald energy   TEWEN  =    -12549.54148740
  -Hartree energ DENC   =     -8429.90847492
  -exchange      EXHF   =         0.00000000
  -V(xc)+E(xc)   XCENC  =      1118.62147884
  PAW double counting   =     17948.02347386   -18066.77862031
  entropy T*S    EENTRO =        -0.00000000
  eigenvalues    EBANDS =     -3266.54245057
  atomic energy  EATOM  =     22302.35321627
  Solvation  Ediel_sol  =         0.00000000
  ---------------------------------------------------
  free energy    TOTEN  =      -206.26517256 eV

  energy without entropy =     -206.26517256  energy(sigma->0) =     -206.26517256


--------------------------------------------------------------------------------------------------------




--------------------------------------- Iteration      1(   3)  ---------------------------------------


    POTLOK:  cpu time    0.1510: real time    0.1746
    SETDIJ:  cpu time    0.8409: real time    0.8383
     EDDAV:  cpu time   29.4325: real time   29.4220
       DOS:  cpu time    0.0030: real time    0.0034
    CHARGE:  cpu time    1.1688: real time    1.1654
    MIXING:  cpu time    0.0020: real time    0.0022
    --------------------------------------------
      LOOP:  cpu time   31.5982: real time   31.6060

 eigenvalue-minimisations  : 21312
 total energy-change (2. order) : 0.2040899E-04  (-0.9099065E-05)
 number of electron     240.0000004 magnetization       2.0000000
 augmentation part       62.0596554 magnetization       1.1574488

 Broyden mixing:
  rms(total) = 0.67180E-03    rms(broyden)= 0.66837E-03
  rms(prec ) = 0.88202E-03
  weight for this iteration     100.00

 eigenvalues of (default mixing * dielectric matrix)
  average eigenvalue GAMMA=   0.6028
  0.8862  0.3195

 Free energy of the ion-electron system (eV)
  ---------------------------------------------------
  alpha Z        PSCENC =       737.50769167
  Ewald energy   TEWEN  =    -12549.54148740
  -Hartree energ DENC   =     -8429.90753867
  -exchange      EXHF   =         0.00000000
  -V(xc)+E(xc)   XCENC  =      1118.62148639
  PAW double counting   =     17948.03889963   -18066.79378494
  entropy T*S    EENTRO =        -0.00000000
  eigenvalues    EBANDS =     -3266.54363510
  atomic energy  EATOM  =     22302.35321627
  Solvation  Ediel_sol  =         0.00000000
  ---------------------------------------------------
  free energy    TOTEN  =      -206.26515216 eV

  energy without entropy =     -206.26515216  energy(sigma->0) =     -206.26515216


--------------------------------------------------------------------------------------------------------




--------------------------------------- Iteration      1(   4)  ---------------------------------------


    POTLOK:  cpu time    0.1500: real time    0.1669
    SETDIJ:  cpu time    0.8359: real time    0.8341
     EDDAV:  cpu time   23.7694: real time   23.7616
       DOS:  cpu time    0.0040: real time    0.0037
    CHARGE:  cpu time    1.1688: real time    1.1669
    MIXING:  cpu time    0.0030: real time    0.0024
    --------------------------------------------
      LOOP:  cpu time   25.9311: real time   25.9356

 eigenvalue-minimisations  : 15840
 total energy-change (2. order) :-0.1346452E-05  (-0.7096071E-06)
 number of electron     240.0000004 magnetization       2.0000000
 augmentation part       62.0597062 magnetization       1.1574501

 Broyden mixing:
  rms(total) = 0.48727E-03    rms(broyden)= 0.48701E-03
  rms(prec ) = 0.62799E-03
  weight for this iteration     100.00

 eigenvalues of (default mixing * dielectric matrix)
  average eigenvalue GAMMA=   0.9473
  2.1638  0.3390  0.3390

 Free energy of the ion-electron system (eV)
  ---------------------------------------------------
  alpha Z        PSCENC =       737.50769167
  Ewald energy   TEWEN  =    -12549.54148740
  -Hartree energ DENC   =     -8429.90682160
  -exchange      EXHF   =         0.00000000
  -V(xc)+E(xc)   XCENC  =      1118.62151273
  PAW double counting   =     17948.06423943   -18066.81864808
  entropy T*S    EENTRO =        -0.00000000
  eigenvalues    EBANDS =     -3266.54485652
  atomic energy  EATOM  =     22302.35321627
  Solvation  Ediel_sol  =         0.00000000
  ---------------------------------------------------
  free energy    TOTEN  =      -206.26515350 eV

  energy without entropy =     -206.26515350  energy(sigma->0) =     -206.26515350


--------------------------------------------------------------------------------------------------------




--------------------------------------- Iteration      1(   5)  ---------------------------------------


    POTLOK:  cpu time    0.2510: real time    0.2767
    SETDIJ:  cpu time    0.8349: real time    0.8339
     EDDAV:  cpu time   18.9911: real time   18.9831
       DOS:  cpu time    0.0030: real time    0.0033
    CHARGE:  cpu time    1.1688: real time    1.1666
    MIXING:  cpu time    0.0030: real time    0.0022
    --------------------------------------------
      LOOP:  cpu time   21.2518: real time   21.2659

 eigenvalue-minimisations  : 10880
 total energy-change (2. order) :-0.1128028E-05  (-0.8586752E-07)
 number of electron     240.0000004 magnetization       2.0000000
 augmentation part       62.0597548 magnetization       1.1574523

 Broyden mixing:
  rms(total) = 0.16175E-03    rms(broyden)= 0.16171E-03
  rms(prec ) = 0.22203E-03
  weight for this iteration     100.00

 eigenvalues of (default mixing * dielectric matrix)
  average eigenvalue GAMMA=   0.9377
  2.3275  0.7267  0.3359  0.3608

 Free energy of the ion-electron system (eV)
  ---------------------------------------------------
  alpha Z        PSCENC =       737.50769167
  Ewald energy   TEWEN  =    -12549.54148740
  -Hartree energ DENC   =     -8429.90713694
  -exchange      EXHF   =         0.00000000
  -V(xc)+E(xc)   XCENC  =      1118.62163389
  PAW double counting   =     17948.12094096   -18066.87425853
  entropy T*S    EENTRO =        -0.00000000
  eigenvalues    EBANDS =     -3266.54575454
  atomic energy  EATOM  =     22302.35321627
  Solvation  Ediel_sol  =         0.00000000
  ---------------------------------------------------
  free energy    TOTEN  =      -206.26515463 eV

  energy without entropy =     -206.26515463  energy(sigma->0) =     -206.26515463


--------------------------------------------------------------------------------------------------------




--------------------------------------- Iteration      1(   6)  ---------------------------------------


    POTLOK:  cpu time    0.1810: real time    0.2508
    SETDIJ:  cpu time    0.8399: real time    0.8382
     EDDAV:  cpu time   18.2612: real time   18.2509
       DOS:  cpu time    0.0040: real time    0.0036
    --------------------------------------------
      LOOP:  cpu time   19.2861: real time   19.3436

 eigenvalue-minimisations  : 10240
 total energy-change (2. order) :-0.1047192E-06  (-0.3390938E-07)
 number of electron     240.0000004 magnetization       2.0000000
 augmentation part       62.0597548 magnetization       1.1574523

 Free energy of the ion-electron system (eV)
  ---------------------------------------------------
  alpha Z        PSCENC =       737.50769167
  Ewald energy   TEWEN  =    -12549.54148740
  -Hartree energ DENC   =     -8429.90875719
  -exchange      EXHF   =         0.00000000
  -V(xc)+E(xc)   XCENC  =      1118.62169893
  PAW double counting   =     17948.12944432   -18066.88251112
  entropy T*S    EENTRO =        -0.00000000
  eigenvalues    EBANDS =     -3266.54445021
  atomic energy  EATOM  =     22302.35321627
  Solvation  Ediel_sol  =         0.00000000
  ---------------------------------------------------
  free energy    TOTEN  =      -206.26515473 eV

  energy without entropy =     -206.26515473  energy(sigma->0) =     -206.26515473


--------------------------------------------------------------------------------------------------------




 average (electrostatic) potential at core
  the test charge radii are     1.0397  0.7215  0.7167
  (the norm of the test charge is              1.0000)
       1 -60.7117       2 -58.1575       3 -58.1575       4 -60.7118       5 -57.6887
       6 -57.7209       7 -57.7209       8 -57.6888       9 -73.0741      10 -73.0741
      11 -73.0740      12 -73.0740      13 -73.0743      14 -73.0740      15 -73.0742
      16 -73.0740      17 -79.8664      18 -79.3051      19 -79.3051      20 -79.8664
      21 -79.8664      22 -79.3051      23 -79.3051      24 -79.8664      25 -80.5549
      26 -80.5532      27 -80.5530      28 -80.5548      29 -80.5533      30 -80.5548
      31 -80.5550      32 -80.5531
 
 
 
 E-fermi :   0.4197     XC(G=0):  -8.8509     alpha+bet : -7.4423


 spin component 1

 k-point     1 :       0.1250    0.1250    0.1250
  band No.  band energies     occupation 
      1     -36.7183      1.00000
      2     -36.7183      1.00000
      3     -36.7180      1.00000
      4     -36.7179      1.00000
      5     -36.6184      1.00000
      6     -36.6184      1.00000
      7     -35.0189      1.00000
      8     -35.0188      1.00000
      9     -34.5671      1.00000
     10     -34.5669      1.00000
     11     -34.5661      1.00000
     12     -34.5660      1.00000
     13     -33.8098      1.00000
     14     -33.8077      1.00000
     15     -33.8074      1.00000
     16     -33.8052      1.00000
     17     -33.4646      1.00000
     18     -33.4645      1.00000
     19     -33.4623      1.00000
     20     -33.4621      1.00000
     21     -33.4028      1.00000
     22     -33.4025      1.00000
     23     -33.4005      1.00000
     24     -33.4005      1.00000
     25     -24.6624      1.00000
     26     -24.5130      1.00000
     27     -24.4381      1.00000
     28     -24.2906      1.00000
     29     -23.9165      1.00000
     30     -23.9163      1.00000
     31     -23.9104      1.00000
     32     -23.8993      1.00000
     33     -23.6555      1.00000
     34     -23.6523      1.00000
     35     -23.1973      1.00000
     36     -23.1969      1.00000
     37     -23.1179      1.00000
     38     -23.1164      1.00000
     39     -22.6906      1.00000
     40     -22.6906      1.00000
     41     -16.0779      1.00000
     42     -15.7406      1.00000
     43     -15.7313      1.00000
     44     -15.4088      1.00000
     45     -15.0856      1.00000
     46     -15.0844      1.00000
     47     -15.0746      1.00000
     48     -15.0456      1.00000
     49      -8.2325      1.00000
     50      -8.2186      1.00000
     51      -7.9437      1.00000
     52      -7.9435      1.00000
     53      -7.2381      1.00000
     54      -7.2138      1.00000
     55      -7.2113      1.00000
     56      -6.6466      1.00000
     57      -6.6150      1.00000
     58      -6.5745      1.00000
     59      -6.5706      1.00000
     60      -6.4396      1.00000
     61      -6.4318      1.00000
     62      -6.4306      1.00000
     63      -6.4154      1.00000
     64      -6.3995      1.00000
     65      -6.3825      1.00000
     66      -6.1911      1.00000
     67      -6.1150      1.00000
     68      -5.9513      1.00000
     69      -5.9399      1.00000
     70      -5.5778      1.00000
     71      -5.4493      1.00000
     72      -5.3718      1.00000
     73      -5.3532      1.00000
     74      -5.1909      1.00000
     75      -5.1727      1.00000
     76      -5.1384      1.00000
     77      -5.0545      1.00000
     78      -4.9949      1.00000
     79      -4.9437      1.00000
     80      -4.6312      1.00000
     81      -4.6268      1.00000
     82      -4.6025      1.00000
     83      -4.5983      1.00000
     84      -4.5963      1.00000
     85      -4.5895      1.00000
     86      -4.5753      1.00000
     87      -4.5653      1.00000
     88      -4.4111      1.00000
     89      -4.1511      1.00000
     90      -4.1502      1.00000
     91      -4.1497      1.00000
     92      -4.1466      1.00000
     93      -4.0616      1.00000
     94      -4.0615      1.00000
     95      -4.0596      1.00000
     96      -4.0559      1.00000
     97      -3.6692      1.00000
     98      -3.6665      1.00000
     99      -3.6492      1.00000
    100      -3.6133      1.00000
    101      -2.9397      1.00000
    102      -1.5821      1.00000
    103      -1.5556      1.00000
    104      -1.4601      1.00000
    105      -1.4253      1.00000
    106      -1.1464      1.00000
    107      -1.1400      1.00000
    108      -1.0957      1.00000
    109      -1.0676      1.00000
    110      -1.0601      1.00000
    111      -1.0529      1.00000
    112      -1.0421      1.00000
    113      -1.0296      1.00000
    114      -0.5257      1.00000
    115      -0.5159      1.00000
    116      -0.4906      1.00000
    117      -0.3645      1.00000
    118      -0.3560      1.00000
    119      -0.0649      1.00000
    120       0.1554      1.00000
    121       0.3206      1.00000
    122       1.1251      0.00000
    123       1.2025      0.00000
    124       1.2672      0.00000
    125       1.2752      0.00000
    126       1.2816      0.00000
    127       1.2855      0.00000
    128       1.3465      0.00000
    129       2.4889      0.00000
    130       2.5799      0.00000
    131       2.7006      0.00000
    132       2.7061      0.00000
    133       2.7559      0.00000
    134       2.7560      0.00000
    135       2.7587      0.00000
    136       2.7634      0.00000
    137       3.2149      0.00000
    138       3.2886      0.00000
    139       3.3124      0.00000
    140       3.3226      0.00000
    141       3.3243      0.00000
    142       3.8728      0.00000
    143       3.9784      0.00000
    144       4.3727      0.00000
    145       4.4374      0.00000
    146       4.6921      0.00000
    147       4.6954      0.00000
    148       4.6960      0.00000
    149       4.7035      0.00000
    150       4.7149      0.00000
    151       4.7527      0.00000
    152       4.8161      0.00000
    153       5.2554      0.00000
    154       5.3399      0.00000
    155       5.3934      0.00000
    156       5.5833      0.00000
    157       5.7034      0.00000
    158       5.9878      0.00000
    159       6.6524      0.00000
    160       6.7665      0.00000

 k-point     2 :       0.3750    0.1250    0.1250
  band No.  band energies     occupation 
      1     -36.7183      1.00000
      2     -36.7183      1.00000
      3     -36.7180      1.00000
      4     -36.7179      1.00000
      5     -36.6182      1.00000
      6     -36.6181      1.00000
      7     -35.0179      1.00000
      8     -35.0178      1.00000
      9     -34.5671      1.00000
     10     -34.5669      1.00000
     11     -34.5661      1.00000
     12     -34.5660      1.00000
     13     -33.8111      1.00000
     14     -33.8090      1.00000
     15     -33.8085      1.00000
     16     -33.8064      1.00000
     17     -33.4646      1.00000
     18     -33.4645      1.00000
     19     -33.4623      1.00000
     20     -33.4621      1.00000
     21     -33.4028      1.00000
     22     -33.4025      1.00000
     23     -33.4005      1.00000
     24     -33.4005      1.00000
     25     -24.6609      1.00000
     26     -24.5114      1.00000
     27     -24.4376      1.00000
     28     -24.2906      1.00000
     29     -23.9164      1.00000
     30     -23.9159      1.00000
     31     -23.9103      1.00000
     32     -23.8993      1.00000
     33     -23.5933      1.00000
     34     -23.5904      1.00000
     35     -23.2649      1.00000
     36     -23.2644      1.00000
     37     -23.0398      1.00000
     38     -23.0385      1.00000
     39     -22.7731      1.00000
     40     -22.7730      1.00000
     41     -16.0769      1.00000
     42     -15.7401      1.00000
     43     -15.7308      1.00000
     44     -15.4088      1.00000
     45     -15.0856      1.00000
     46     -15.0845      1.00000
     47     -15.0746      1.00000
     48     -15.0456      1.00000
     49      -8.2314      1.00000
     50      -8.2174      1.00000
     51      -7.9436      1.00000
     52      -7.9435      1.00000
     53      -7.2380      1.00000
     54      -6.9656      1.00000
     55      -6.9622      1.00000
     56      -6.6446      1.00000
     57      -6.6159      1.00000
     58      -6.4362      1.00000
     59      -6.4187      1.00000
     60      -6.4163      1.00000
     61      -6.4082      1.00000
     62      -6.3820      1.00000
     63      -6.3558      1.00000
     64      -6.2989      1.00000
     65      -6.2699      1.00000
     66      -6.2349      1.00000
     67      -6.1918      1.00000
     68      -6.1408      1.00000
     69      -5.9524      1.00000
     70      -5.7316      1.00000
     71      -5.6506      1.00000
     72      -5.4575      1.00000
     73      -5.3803      1.00000
     74      -5.2393      1.00000
     75      -5.1924      1.00000
     76      -5.1862      1.00000
     77      -5.1727      1.00000
     78      -5.1230      1.00000
     79      -5.0548      1.00000
     80      -4.7496      1.00000
     81      -4.7488      1.00000
     82      -4.7151      1.00000
     83      -4.7143      1.00000
     84      -4.5955      1.00000
     85      -4.5697      1.00000
     86      -4.5608      1.00000
     87      -4.5607      1.00000
     88      -4.4130      1.00000
     89      -4.1927      1.00000
     90      -4.1864      1.00000
     91      -4.1819      1.00000
     92      -4.1798      1.00000
     93      -3.9798      1.00000
     94      -3.9771      1.00000
     95      -3.9668      1.00000
     96      -3.9563      1.00000
     97      -3.6611      1.00000
     98      -3.6551      1.00000
     99      -3.6409      1.00000
    100      -3.6100      1.00000
    101      -2.9400      1.00000
    102      -1.5964      1.00000
    103      -1.5700      1.00000
    104      -1.4620      1.00000
    105      -1.4277      1.00000
    106      -1.1206      1.00000
    107      -1.1149      1.00000
    108      -1.0929      1.00000
    109      -1.0654      1.00000
    110      -1.0634      1.00000
    111      -1.0588      1.00000
    112      -1.0518      1.00000
    113      -1.0424      1.00000
    114      -0.5487      1.00000
    115      -0.5160      1.00000
    116      -0.5085      1.00000
    117      -0.3659      1.00000
    118      -0.3576      1.00000
    119      -0.0597      1.00000
    120       0.1549      1.00000
    121       0.3203      1.00000
    122       1.1247      0.00000
    123       1.2025      0.00000
    124       1.3004      0.00000
    125       1.3062      0.00000
    126       1.3122      0.00000
    127       1.3165      0.00000
    128       1.3465      0.00000
    129       2.4886      0.00000
    130       2.6162      0.00000
    131       2.8057      0.00000
    132       2.8082      0.00000
    133       2.8101      0.00000
    134       2.8145      0.00000
    135       2.9970      0.00000
    136       3.0300      0.00000
    137       3.1905      0.00000
    138       3.2150      0.00000
    139       3.2197      0.00000
    140       3.2304      0.00000
    141       3.2325      0.00000
    142       4.3657      0.00000
    143       4.4416      0.00000
    144       4.4649      0.00000
    145       4.4713      0.00000
    146       4.6728      0.00000
    147       4.6737      0.00000
    148       4.6759      0.00000
    149       4.6945      0.00000
    150       4.7038      0.00000
    151       4.7530      0.00000
    152       4.8163      0.00000
    153       5.0332      0.00000
    154       5.0774      0.00000
    155       5.3396      0.00000
    156       5.3981      0.00000
    157       5.5835      0.00000
    158       5.8699      0.00000
    159       6.6116      0.00000
    160       6.7522      0.00000

 k-point     3 :      -0.3750    0.1250    0.1250
  band No.  band energies     occupation 
      1     -36.7183      1.00000
      2     -36.7183      1.00000
      3     -36.7180      1.00000
      4     -36.7179      1.00000
      5     -36.6182      1.00000
      6     -36.6181      1.00000
      7     -35.0179      1.00000
      8     -35.0178      1.00000
      9     -34.5671      1.00000
     10     -34.5669      1.00000
     11     -34.5661      1.00000
     12     -34.5660      1.00000
     13     -33.8111      1.00000
     14     -33.8090      1.00000
     15     -33.8085      1.00000
     16     -33.8064      1.00000
     17     -33.4646      1.00000
     18     -33.4645      1.00000
     19     -33.4623      1.00000
     20     -33.4621      1.00000
     21     -33.4028      1.00000
     22     -33.4025      1.00000
     23     -33.4005      1.00000
     24     -33.4005      1.00000
     25     -24.6609      1.00000
     26     -24.5114      1.00000
     27     -24.4376      1.00000
     28     -24.2906      1.00000
     29     -23.9164      1.00000
     30     -23.9159      1.00000
     31     -23.9103      1.00000
     32     -23.8993      1.00000
     33     -23.5933      1.00000
     34     -23.5904      1.00000
     35     -23.2649      1.00000
     36     -23.2644      1.00000
     37     -23.0398      1.00000
     38     -23.0385      1.00000
     39     -22.7731      1.00000
     40     -22.7730      1.00000
     41     -16.0769      1.00000
     42     -15.7401      1.00000
     43     -15.7308      1.00000
     44     -15.4088      1.00000
     45     -15.0856      1.00000
     46     -15.0845      1.00000
     47     -15.0746      1.00000
     48     -15.0456      1.00000
     49      -8.2314      1.00000
     50      -8.2174      1.00000
     51      -7.9436      1.00000
     52      -7.9435      1.00000
     53      -7.2380      1.00000
     54      -6.9656      1.00000
     55      -6.9622      1.00000
     56      -6.6446      1.00000
     57      -6.6159      1.00000
     58      -6.4362      1.00000
     59      -6.4187      1.00000
     60      -6.4163      1.00000
     61      -6.4082      1.00000
     62      -6.3820      1.00000
     63      -6.3558      1.00000
     64      -6.2989      1.00000
     65      -6.2699      1.00000
     66      -6.2349      1.00000
     67      -6.1918      1.00000
     68      -6.1408      1.00000
     69      -5.9524      1.00000
     70      -5.7316      1.00000
     71      -5.6506      1.00000
     72      -5.4575      1.00000
     73      -5.3803      1.00000
     74      -5.2393      1.00000
     75      -5.1924      1.00000
     76      -5.1862      1.00000
     77      -5.1727      1.00000
     78      -5.1230      1.00000
     79      -5.0548      1.00000
     80      -4.7496      1.00000
     81      -4.7488      1.00000
     82      -4.7151      1.00000
     83      -4.7143      1.00000
     84      -4.5955      1.00000
     85      -4.5697      1.00000
     86      -4.5608      1.00000
     87      -4.5607      1.00000
     88      -4.4130      1.00000
     89      -4.1927      1.00000
     90      -4.1864      1.00000
     91      -4.1819      1.00000
     92      -4.1798      1.00000
     93      -3.9798      1.00000
     94      -3.9771      1.00000
     95      -3.9668      1.00000
     96      -3.9563      1.00000
     97      -3.6611      1.00000
     98      -3.6551      1.00000
     99      -3.6409      1.00000
    100      -3.6100      1.00000
    101      -2.9400      1.00000
    102      -1.5964      1.00000
    103      -1.5700      1.00000
    104      -1.4620      1.00000
    105      -1.4277      1.00000
    106      -1.1206      1.00000
    107      -1.1149      1.00000
    108      -1.0929      1.00000
    109      -1.0654      1.00000
    110      -1.0634      1.00000
    111      -1.0588      1.00000
    112      -1.0518      1.00000
    113      -1.0424      1.00000
    114      -0.5487      1.00000
    115      -0.5160      1.00000
    116      -0.5085      1.00000
    117      -0.3659      1.00000
    118      -0.3576      1.00000
    119      -0.0597      1.00000
    120       0.1549      1.00000
    121       0.3203      1.00000
    122       1.1247      0.00000
    123       1.2025      0.00000
    124       1.3004      0.00000
    125       1.3062      0.00000
    126       1.3122      0.00000
    127       1.3165      0.00000
    128       1.3465      0.00000
    129       2.4886      0.00000
    130       2.6162      0.00000
    131       2.8057      0.00000
    132       2.8082      0.00000
    133       2.8101      0.00000
    134       2.8145      0.00000
    135       2.9970      0.00000
    136       3.0300      0.00000
    137       3.1905      0.00000
    138       3.2150      0.00000
    139       3.2197      0.00000
    140       3.2304      0.00000
    141       3.2325      0.00000
    142       4.3657      0.00000
    143       4.4416      0.00000
    144       4.4649      0.00000
    145       4.4713      0.00000
    146       4.6728      0.00000
    147       4.6737      0.00000
    148       4.6759      0.00000
    149       4.6945      0.00000
    150       4.7038      0.00000
    151       4.7530      0.00000
    152       4.8163      0.00000
    153       5.0332      0.00000
    154       5.0774      0.00000
    155       5.3396      0.00000
    156       5.3981      0.00000
    157       5.5835      0.00000
    158       5.8699      0.00000
    159       6.6116      0.00000
    160       6.7522      0.00000

 k-point     4 :      -0.1250    0.1250    0.1250
  band No.  band energies     occupation 
      1     -36.7183      1.00000
      2     -36.7183      1.00000
      3     -36.7180      1.00000
      4     -36.7179      1.00000
      5     -36.6184      1.00000
      6     -36.6184      1.00000
      7     -35.0189      1.00000
      8     -35.0188      1.00000
      9     -34.5671      1.00000
     10     -34.5669      1.00000
     11     -34.5661      1.00000
     12     -34.5660      1.00000
     13     -33.8098      1.00000
     14     -33.8077      1.00000
     15     -33.8074      1.00000
     16     -33.8052      1.00000
     17     -33.4646      1.00000
     18     -33.4645      1.00000
     19     -33.4623      1.00000
     20     -33.4621      1.00000
     21     -33.4028      1.00000
     22     -33.4025      1.00000
     23     -33.4005      1.00000
     24     -33.4005      1.00000
     25     -24.6624      1.00000
     26     -24.5130      1.00000
     27     -24.4381      1.00000
     28     -24.2906      1.00000
     29     -23.9165      1.00000
     30     -23.9163      1.00000
     31     -23.9104      1.00000
     32     -23.8993      1.00000
     33     -23.6555      1.00000
     34     -23.6523      1.00000
     35     -23.1973      1.00000
     36     -23.1969      1.00000
     37     -23.1179      1.00000
     38     -23.1164      1.00000
     39     -22.6906      1.00000
     40     -22.6906      1.00000
     41     -16.0779      1.00000
     42     -15.7406      1.00000
     43     -15.7313      1.00000
     44     -15.4088      1.00000
     45     -15.0856      1.00000
     46     -15.0844      1.00000
     47     -15.0746      1.00000
     48     -15.0456      1.00000
     49      -8.2325      1.00000
     50      -8.2186      1.00000
     51      -7.9437      1.00000
     52      -7.9435      1.00000
     53      -7.2381      1.00000
     54      -7.2138      1.00000
     55      -7.2113      1.00000
     56      -6.6466      1.00000
     57      -6.6150      1.00000
     58      -6.5745      1.00000
     59      -6.5706      1.00000
     60      -6.4396      1.00000
     61      -6.4318      1.00000
     62      -6.4306      1.00000
     63      -6.4154      1.00000
     64      -6.3995      1.00000
     65      -6.3825      1.00000
     66      -6.1911      1.00000
     67      -6.1150      1.00000
     68      -5.9513      1.00000
     69      -5.9399      1.00000
     70      -5.5778      1.00000
     71      -5.4493      1.00000
     72      -5.3718      1.00000
     73      -5.3532      1.00000
     74      -5.1909      1.00000
     75      -5.1727      1.00000
     76      -5.1384      1.00000
     77      -5.0545      1.00000
     78      -4.9949      1.00000
     79      -4.9437      1.00000
     80      -4.6312      1.00000
     81      -4.6268      1.00000
     82      -4.6025      1.00000
     83      -4.5983      1.00000
     84      -4.5963      1.00000
     85      -4.5895      1.00000
     86      -4.5753      1.00000
     87      -4.5653      1.00000
     88      -4.4111      1.00000
     89      -4.1511      1.00000
     90      -4.1502      1.00000
     91      -4.1497      1.00000
     92      -4.1466      1.00000
     93      -4.0616      1.00000
     94      -4.0615      1.00000
     95      -4.0596      1.00000
     96      -4.0559      1.00000
     97      -3.6692      1.00000
     98      -3.6665      1.00000
     99      -3.6492      1.00000
    100      -3.6133      1.00000
    101      -2.9397      1.00000
    102      -1.5821      1.00000
    103      -1.5556      1.00000
    104      -1.4601      1.00000
    105      -1.4253      1.00000
    106      -1.1464      1.00000
    107      -1.1400      1.00000
    108      -1.0957      1.00000
    109      -1.0676      1.00000
    110      -1.0601      1.00000
    111      -1.0529      1.00000
    112      -1.0421      1.00000
    113      -1.0296      1.00000
    114      -0.5257      1.00000
    115      -0.5159      1.00000
    116      -0.4906      1.00000
    117      -0.3645      1.00000
    118      -0.3560      1.00000
    119      -0.0649      1.00000
    120       0.1554      1.00000
    121       0.3206      1.00000
    122       1.1251      0.00000
    123       1.2025      0.00000
    124       1.2672      0.00000
    125       1.2752      0.00000
    126       1.2816      0.00000
    127       1.2855      0.00000
    128       1.3465      0.00000
    129       2.4889      0.00000
    130       2.5799      0.00000
    131       2.7006      0.00000
    132       2.7061      0.00000
    133       2.7559      0.00000
    134       2.7560      0.00000
    135       2.7587      0.00000
    136       2.7634      0.00000
    137       3.2149      0.00000
    138       3.2886      0.00000
    139       3.3124      0.00000
    140       3.3226      0.00000
    141       3.3243      0.00000
    142       3.8728      0.00000
    143       3.9784      0.00000
    144       4.3727      0.00000
    145       4.4374      0.00000
    146       4.6921      0.00000
    147       4.6954      0.00000
    148       4.6960      0.00000
    149       4.7035      0.00000
    150       4.7149      0.00000
    151       4.7527      0.00000
    152       4.8161      0.00000
    153       5.2554      0.00000
    154       5.3399      0.00000
    155       5.3934      0.00000
    156       5.5833      0.00000
    157       5.7034      0.00000
    158       5.9878      0.00000
    159       6.6524      0.00000
    160       6.7665      0.00000

 k-point     5 :       0.1250    0.3750    0.1250
  band No.  band energies     occupation 
      1     -36.7182      1.00000
      2     -36.7181      1.00000
      3     -36.7171      1.00000
      4     -36.7170      1.00000
      5     -36.6184      1.00000
      6     -36.6184      1.00000
      7     -35.0189      1.00000
      8     -35.0188      1.00000
      9     -34.5692      1.00000
     10     -34.5690      1.00000
     11     -34.5664      1.00000
     12     -34.5663      1.00000
     13     -33.8092      1.00000
     14     -33.8082      1.00000
     15     -33.8068      1.00000
     16     -33.8059      1.00000
     17     -33.4639      1.00000
     18     -33.4629      1.00000
     19     -33.4499      1.00000
     20     -33.4481      1.00000
     21     -33.4170      1.00000
     22     -33.4153      1.00000
     23     -33.4020      1.00000
     24     -33.4011      1.00000
     25     -24.5819      1.00000
     26     -24.5158      1.00000
     27     -24.3206      1.00000
     28     -24.2379      1.00000
     29     -24.0560      1.00000
     30     -24.0392      1.00000
     31     -23.9103      1.00000
     32     -23.9066      1.00000
     33     -23.6519      1.00000
     34     -23.6510      1.00000
     35     -23.1971      1.00000
     36     -23.1970      1.00000
     37     -23.1159      1.00000
     38     -23.1153      1.00000
     39     -22.6906      1.00000
     40     -22.6906      1.00000
     41     -15.9534      1.00000
     42     -15.8096      1.00000
     43     -15.5526      1.00000
     44     -15.3495      1.00000
     45     -15.2767      1.00000
     46     -15.2179      1.00000
     47     -15.0751      1.00000
     48     -15.0612      1.00000
     49      -8.1208      1.00000
     50      -8.1114      1.00000
     51      -7.6895      1.00000
     52      -7.6716      1.00000
     53      -7.2120      1.00000
     54      -7.2092      1.00000
     55      -7.0162      1.00000
     56      -6.9777      1.00000
     57      -6.8839      1.00000
     58      -6.6106      1.00000
     59      -6.5920      1.00000
     60      -6.5681      1.00000
     61      -6.5670      1.00000
     62      -6.5151      1.00000
     63      -6.4250      1.00000
     64      -6.4078      1.00000
     65      -6.3282      1.00000
     66      -6.2819      1.00000
     67      -6.1209      1.00000
     68      -6.0089      1.00000
     69      -5.8143      1.00000
     70      -5.5994      1.00000
     71      -5.4876      1.00000
     72      -5.4772      1.00000
     73      -5.3279      1.00000
     74      -5.3166      1.00000
     75      -5.2853      1.00000
     76      -5.1543      1.00000
     77      -5.0271      1.00000
     78      -5.0090      1.00000
     79      -4.9563      1.00000
     80      -4.6890      1.00000
     81      -4.6106      1.00000
     82      -4.5978      1.00000
     83      -4.5903      1.00000
     84      -4.5894      1.00000
     85      -4.5699      1.00000
     86      -4.5151      1.00000
     87      -4.3578      1.00000
     88      -4.3474      1.00000
     89      -4.1855      1.00000
     90      -4.1851      1.00000
     91      -4.1488      1.00000
     92      -4.1475      1.00000
     93      -4.1033      1.00000
     94      -4.0973      1.00000
     95      -4.0602      1.00000
     96      -4.0589      1.00000
     97      -3.6537      1.00000
     98      -3.6453      1.00000
     99      -3.0533      1.00000
    100      -2.9882      1.00000
    101      -2.6372      1.00000
    102      -2.1830      1.00000
    103      -2.1344      1.00000
    104      -1.9185      1.00000
    105      -1.5415      1.00000
    106      -1.4956      1.00000
    107      -1.1325      1.00000
    108      -1.1110      1.00000
    109      -1.1054      1.00000
    110      -1.0614      1.00000
    111      -0.9445      1.00000
    112      -0.8375      1.00000
    113      -0.8003      1.00000
    114      -0.7243      1.00000
    115      -0.6096      1.00000
    116      -0.4285      1.00000
    117      -0.3625      1.00000
    118      -0.2579      1.00000
    119      -0.1878      1.00000
    120       0.0893      1.00000
    121       0.3428      1.00000
    122       0.8702      0.00000
    123       1.1782      0.00000
    124       1.2431      0.00000
    125       1.2741      0.00000
    126       1.2795      0.00000
    127       1.3714      0.00000
    128       1.3758      0.00000
    129       2.6292      0.00000
    130       2.6467      0.00000
    131       2.7158      0.00000
    132       2.7171      0.00000
    133       2.7579      0.00000
    134       2.7594      0.00000
    135       2.9772      0.00000
    136       2.9948      0.00000
    137       3.3050      0.00000
    138       3.3158      0.00000
    139       3.6970      0.00000
    140       3.7047      0.00000
    141       3.7064      0.00000
    142       3.8337      0.00000
    143       3.9104      0.00000
    144       4.2810      0.00000
    145       4.2851      0.00000
    146       4.3209      0.00000
    147       4.6120      0.00000
    148       4.6804      0.00000
    149       4.6986      0.00000
    150       4.7029      0.00000
    151       4.8605      0.00000
    152       5.0871      0.00000
    153       5.1116      0.00000
    154       5.1894      0.00000
    155       5.4320      0.00000
    156       5.6059      0.00000
    157       5.7543      0.00000
    158       6.1343      0.00000
    159       6.2495      0.00000
    160       6.9492      0.00000

 k-point     6 :       0.3750    0.3750    0.1250
  band No.  band energies     occupation 
      1     -36.7182      1.00000
      2     -36.7181      1.00000
      3     -36.7171      1.00000
      4     -36.7170      1.00000
      5     -36.6182      1.00000
      6     -36.6181      1.00000
      7     -35.0179      1.00000
      8     -35.0179      1.00000
      9     -34.5692      1.00000
     10     -34.5690      1.00000
     11     -34.5664      1.00000
     12     -34.5663      1.00000
     13     -33.8104      1.00000
     14     -33.8094      1.00000
     15     -33.8080      1.00000
     16     -33.8071      1.00000
     17     -33.4639      1.00000
     18     -33.4629      1.00000
     19     -33.4499      1.00000
     20     -33.4481      1.00000
     21     -33.4170      1.00000
     22     -33.4153      1.00000
     23     -33.4020      1.00000
     24     -33.4011      1.00000
     25     -24.5803      1.00000
     26     -24.5143      1.00000
     27     -24.3198      1.00000
     28     -24.2378      1.00000
     29     -24.0552      1.00000
     30     -24.0390      1.00000
     31     -23.9102      1.00000
     32     -23.9065      1.00000
     33     -23.5902      1.00000
     34     -23.5892      1.00000
     35     -23.2647      1.00000
     36     -23.2645      1.00000
     37     -23.0380      1.00000
     38     -23.0375      1.00000
     39     -22.7731      1.00000
     40     -22.7730      1.00000
     41     -15.9525      1.00000
     42     -15.8090      1.00000
     43     -15.5522      1.00000
     44     -15.3496      1.00000
     45     -15.2765      1.00000
     46     -15.2179      1.00000
     47     -15.0751      1.00000
     48     -15.0613      1.00000
     49      -8.1199      1.00000
     50      -8.1104      1.00000
     51      -7.6887      1.00000
     52      -7.6712      1.00000
     53      -7.0170      1.00000
     54      -6.9898      1.00000
     55      -6.9637      1.00000
     56      -6.9511      1.00000
     57      -6.8804      1.00000
     58      -6.6085      1.00000
     59      -6.5906      1.00000
     60      -6.5168      1.00000
     61      -6.4074      1.00000
     62      -6.3921      1.00000
     63      -6.3560      1.00000
     64      -6.3250      1.00000
     65      -6.2535      1.00000
     66      -6.2435      1.00000
     67      -6.2293      1.00000
     68      -6.1499      1.00000
     69      -5.8150      1.00000
[...]
 -0.000   0.000   0.000   0.000   0.000   0.000   0.000   0.000  -0.000   0.002  -0.000   0.000   0.000   0.000   0.000  -0.000
  0.000   0.000  -0.000   0.000   0.000  -0.000   0.000   0.000  -0.001  -0.000   0.000   0.000   0.000   0.000  -0.000   0.001
 -0.000  -0.000  -0.000  -0.000  -0.000  -0.000   0.000   0.000  -0.000   0.000   0.000  -0.001   0.000  -0.000  -0.000  -0.000
  0.000  -0.000  -0.000  -0.000   0.000  -0.000   0.000   0.016  -0.000   0.000   0.000   0.000   0.002  -0.000   0.000   0.000
 -0.000  -0.000  -0.000   0.000   0.000  -0.000  -0.000  -0.000   0.001   0.000   0.000  -0.000  -0.000  -0.002  -0.000   0.000
  0.000  -0.000   0.000  -0.000  -0.000   0.000   0.000   0.000   0.000   0.000  -0.000  -0.000   0.000  -0.000  -0.001   0.000
  0.000  -0.000   0.000   0.000  -0.000   0.000   0.000   0.000   0.000  -0.000   0.001  -0.000   0.000   0.000   0.000  -0.002
  0.000  -0.000   0.000   0.000  -0.000   0.000   0.000  -0.000  -0.000  -0.000   0.000  -0.000  -0.000  -0.001   0.000   0.002
 -0.000   0.000  -0.000   0.000  -0.000  -0.000   0.000  -0.000   0.002   0.000  -0.003  -0.000   0.000  -0.002  -0.000   0.003


------------------------ aborting loop because EDIFF is reached ----------------------------------------


 


 total charge     
 
# of ion       s       p       d       tot
------------------------------------------
    1        0.329   6.522   1.750   8.601
    2        0.242   6.348   1.855   8.445
    3        0.242   6.348   1.855   8.445
    4        0.329   6.522   1.750   8.601
    5        0.296   6.447   1.725   8.468
    6        0.298   6.446   1.705   8.449
    7        0.298   6.446   1.705   8.449
    8        0.296   6.447   1.725   8.468
    9        1.570   3.381   0.000   4.951
   10        1.570   3.381   0.000   4.951
   11        1.570   3.381   0.000   4.951
   12        1.570   3.381   0.000   4.951
   13        1.570   3.381   0.000   4.951
   14        1.570   3.381   0.000   4.951
   15        1.570   3.381   0.000   4.951
   16        1.570   3.381   0.000   4.951
   17        1.733   4.366   0.000   6.099
   18        1.730   4.381   0.000   6.112
   19        1.730   4.381   0.000   6.112
   20        1.733   4.366   0.000   6.099
   21        1.733   4.366   0.000   6.099
   22        1.730   4.381   0.000   6.112
   23        1.730   4.381   0.000   6.112
   24        1.733   4.366   0.000   6.099
   25        1.731   4.399   0.000   6.130
   26        1.731   4.399   0.000   6.130
   27        1.731   4.399   0.000   6.130
   28        1.731   4.399   0.000   6.130
   29        1.731   4.399   0.000   6.130
   30        1.731   4.399   0.000   6.130
   31        1.731   4.399   0.000   6.130
   32        1.731   4.399   0.000   6.130
--------------------------------------------------
tot         42.595 148.754  14.068 205.417
 


 magnetization (x)
 
# of ion       s       p       d       tot
------------------------------------------
    1       -0.000   0.000   0.049   0.049
    2        0.004   0.006   0.905   0.916
    3        0.004   0.006   0.905   0.916
    4       -0.000   0.000   0.049   0.049
    5       -0.000  -0.000   0.000   0.000
    6       -0.000  -0.000   0.000  -0.000
    7       -0.000  -0.000   0.000  -0.000
    8       -0.000  -0.000   0.000   0.000
    9       -0.000  -0.001   0.000  -0.001
   10       -0.000  -0.001   0.000  -0.001
   11       -0.000  -0.001   0.000  -0.001
   12       -0.000  -0.001   0.000  -0.001
   13       -0.000  -0.001   0.000  -0.001
   14       -0.000  -0.001   0.000  -0.001
   15       -0.000  -0.001   0.000  -0.001
   16       -0.000  -0.001   0.000  -0.001
   17       -0.000  -0.001   0.000  -0.001
   18       -0.000  -0.012   0.000  -0.012
   19       -0.000  -0.012   0.000  -0.012
   20       -0.000  -0.001   0.000  -0.001
   21       -0.000  -0.001   0.000  -0.001
   22       -0.000  -0.012   0.000  -0.012
   23       -0.000  -0.012   0.000  -0.012
   24       -0.000  -0.001   0.000  -0.001
   25       -0.000   0.001   0.000   0.001
   26       -0.000   0.001   0.000   0.001
   27       -0.000   0.001   0.000   0.001
   28       -0.000   0.001   0.000   0.001
   29       -0.000   0.001   0.000   0.001
   30       -0.000   0.001   0.000   0.001
   31       -0.000   0.001   0.000   0.001
   32       -0.000   0.001   0.000   0.001
--------------------------------------------------
tot          0.004  -0.035   1.907   1.877
 
    CHARGE:  cpu time    1.1878: real time    1.1874
    FORLOC:  cpu time    0.0110: real time    0.0102
    FORNL :  cpu time    6.8110: real time    6.8008
    STRESS:  cpu time   20.4879: real time   20.4522
    FORCOR:  cpu time    0.1290: real time    0.1301
    FORHAR:  cpu time    0.1260: real time    0.1258
    MIXING:  cpu time    0.0020: real time    0.0018
    OFIELD:  cpu time    0.0000: real time    0.0000

  FORCE on cell =-STRESS in cart. coord.  units (eV):
  Direction    XX          YY          ZZ          XY          YZ          ZX
  --------------------------------------------------------------------------------------
  Alpha Z   737.50769   737.50769   737.50769
  Ewald   -4380.12903 -4084.77849 -4084.68965    -0.00017    -3.17305    -0.00056
  Hartree  2655.83349  2887.01448  2887.06433    -0.00009    -1.69014    -0.00030
  E(xc)   -1230.88259 -1231.46489 -1231.46491    -0.00000    -0.00107    -0.00000
  Local   -1886.71113 -2471.70158 -2471.83767     0.00024     4.80598     0.00085
  n-local  -976.16104  -965.52316  -965.52218    -0.00000    -0.02189    -0.00001
  augment   735.48857   764.11950   764.11930     0.00000     0.00646     0.00000
  Kinetic  4345.10443  4364.86776  4364.86813     0.00001     0.12192     0.00003
  Fock        0.00000     0.00000     0.00000     0.00000     0.00000     0.00000
  -------------------------------------------------------------------------------------
  Total       0.05040     0.04131     0.04503     0.00000     0.04820     0.00001
  in kB       0.17006     0.13941     0.15197     0.00001     0.16264     0.00003
  external pressure =        0.15 kB  Pullay stress =        0.00 kB


 VOLUME and BASIS-vectors are now :
 -----------------------------------------------------------------------------
  energy-cutoff  :      700.00
  volume of cell :      474.80
      direct lattice vectors                 reciprocal lattice vectors
     7.964736104 -0.000000125 -0.000000505     0.125553438  0.000000002  0.000000008
    -0.000000127  7.720918286 -0.002746110     0.000000002  0.129518289  0.000045984
    -0.000000463 -0.002741195  7.720888088     0.000000008  0.000046066  0.129518796

  length of vectors
     7.964736104  7.720918774  7.720888575     0.125553438  0.129518297  0.129518804


 FORCES acting on ions
    electron-ion (+dipol)            ewald-force                    non-local-force                 convergence-correction
 -----------------------------------------------------------------------------------------------
   0.393E-04 0.219E-02 0.117E-01   -.478E-04 -.642E-02 -.747E-02   0.241E-06 0.131E-03 -.159E-03   -.847E-07 -.293E-03 -.655E-03
   0.610E-04 0.806E-01 -.767E-01   -.646E-04 -.772E-01 0.731E-01   -.624E-06 -.255E-02 0.238E-02   -.309E-08 -.403E-03 0.679E-03
   0.964E-05 0.749E-01 -.680E-01   -.145E-04 -.716E-01 0.650E-01   -.500E-07 -.278E-02 0.270E-02   -.245E-07 0.275E-03 -.498E-03
   0.131E-03 -.129E-01 -.889E-02   -.143E-03 0.881E-02 0.129E-01   -.101E-06 0.199E-03 -.663E-04   -.766E-07 0.389E-03 0.516E-03
   0.108E-03 -.233E-01 0.501E-01   -.100E-03 0.252E-01 -.452E-01   -.475E-05 -.382E-05 -.123E-03   0.174E-07 -.211E-02 -.494E-02
   0.354E-05 0.500E-01 -.638E-01   -.283E-06 -.464E-01 0.589E-01   -.138E-05 -.258E-03 0.296E-03   -.314E-08 -.277E-02 0.495E-02
   0.974E-04 0.556E-01 -.486E-01   -.914E-04 -.574E-01 0.528E-01   -.362E-05 -.341E-03 0.348E-03   0.487E-08 0.210E-02 -.380E-02
   0.216E-04 -.285E-01 0.340E-01   -.133E-04 0.248E-01 -.381E-01   -.410E-05 0.693E-04 -.134E-03   0.190E-07 0.281E-02 0.381E-02
   -.679E-04 -.256E+01 0.901E-02   0.849E-04 0.277E+01 -.494E-02   -.204E-04 -.206E+00 -.241E-02   0.642E-07 0.529E-04 -.200E-02
   0.149E-04 0.250E+01 -.313E-01   -.121E-04 -.269E+01 0.296E-01   -.384E-05 0.198E+00 -.329E-03   0.687E-07 0.834E-04 0.199E-02
   0.105E-04 0.250E+01 -.200E-01   -.922E-05 -.270E+01 0.222E-01   -.189E-05 0.198E+00 -.226E-03   0.729E-07 -.746E-04 -.198E-02
   -.393E-04 -.255E+01 0.418E-02   0.443E-04 0.275E+01 -.485E-02   -.597E-05 -.205E+00 -.136E-02   0.750E-07 -.145E-03 0.199E-02
   0.208E-04 0.361E-01 -.252E+01   -.196E-04 -.360E-01 0.272E+01   -.204E-05 0.105E-02 -.200E+00   0.811E-07 -.112E-02 -.110E-03
   0.265E-05 0.115E-02 0.255E+01   0.187E-05 -.231E-02 -.276E+01   -.555E-05 0.259E-02 0.204E+00   0.742E-07 -.113E-02 0.660E-04
   0.162E-04 -.279E-04 0.254E+01   -.115E-04 -.356E-02 -.274E+01   -.612E-05 0.279E-02 0.204E+00   0.929E-07 0.111E-02 -.208E-04
   0.735E-06 0.356E-01 -.250E+01   0.193E-05 -.380E-01 0.270E+01   -.363E-05 0.136E-02 -.199E+00   0.844E-07 0.111E-02 0.755E-04
   -.148E+03 0.132E-01 -.684E-02   0.161E+03 -.188E-01 0.136E-01   -.130E+02 0.638E-02 -.592E-02   0.308E-04 -.515E-03 -.109E-02
   -.103E+03 -.113E-02 -.708E-02   0.112E+03 0.811E-02 0.127E-02   -.922E+01 -.694E-02 0.521E-02   -.123E-03 -.702E-03 0.112E-02
   -.103E+03 -.224E-02 -.221E-02   0.112E+03 0.795E-02 -.146E-02   -.922E+01 -.690E-02 0.515E-02   0.351E-04 0.515E-03 -.974E-03
   -.148E+03 0.116E-01 -.152E-01   0.161E+03 -.187E-01 0.202E-01   -.130E+02 0.680E-02 -.629E-02   0.231E-04 0.676E-03 0.946E-03
   0.148E+03 0.133E-01 -.687E-02   -.161E+03 -.188E-01 0.136E-01   0.130E+02 0.638E-02 -.592E-02   -.308E-04 -.515E-03 -.109E-02
   0.103E+03 -.118E-02 -.700E-02   -.112E+03 0.818E-02 0.119E-02   0.922E+01 -.696E-02 0.522E-02   0.123E-03 -.702E-03 0.112E-02
   0.103E+03 -.230E-02 -.220E-02   -.112E+03 0.802E-02 -.147E-02   0.922E+01 -.690E-02 0.515E-02   -.350E-04 0.515E-03 -.974E-03
   0.148E+03 0.116E-01 -.151E-01   -.161E+03 -.187E-01 0.202E-01   0.130E+02 0.680E-02 -.628E-02   -.230E-04 0.676E-03 0.946E-03
   0.551E-05 -.563E+02 0.669E-01   -.104E-04 0.630E+02 -.493E-01   0.518E-05 -.672E+01 -.180E-01   -.164E-06 0.946E-04 -.390E-03
   0.742E-05 0.562E+02 -.833E-01   -.126E-04 -.629E+02 0.670E-01   0.582E-05 0.671E+01 0.167E-01   -.161E-06 -.373E-04 0.394E-03
   0.239E-04 0.562E+02 -.722E-01   -.338E-04 -.629E+02 0.554E-01   0.107E-04 0.670E+01 0.181E-01   -.168E-06 -.846E-04 -.402E-03
   0.879E-04 -.563E+02 0.612E-01   -.981E-04 0.630E+02 -.443E-01   0.107E-04 -.671E+01 -.180E-01   -.171E-06 0.834E-04 0.405E-03
   -.171E-05 0.115E+00 -.562E+02   0.844E-06 -.102E+00 0.629E+02   0.145E-05 -.135E-01 -.671E+01   -.153E-06 -.238E-03 -.275E-05
   0.561E-04 -.913E-01 0.563E+02   -.673E-04 0.769E-01 -.630E+02   0.117E-04 0.156E-01 0.672E+01   -.167E-06 -.249E-03 -.671E-04
   0.198E-04 -.963E-01 0.563E+02   -.276E-04 0.819E-01 -.630E+02   0.818E-05 0.150E-01 0.672E+01   -.180E-06 0.236E-03 -.112E-03
   0.662E-04 0.108E+00 -.562E+02   -.764E-04 -.945E-01 0.629E+02   0.110E-04 -.144E-01 -.670E+01   -.160E-06 0.248E-03 0.118E-03
 -----------------------------------------------------------------------------------------------
   0.549E-04 0.299E-01 -.248E-01   0.252E-12 0.688E-14 -.426E-13   -.545E-04 -.304E-01 0.253E-01   -.499E-06 -.116E-03 0.810E-07
 
 
 POSITION                                       TOTAL-FORCE (eV/Angst)
 -----------------------------------------------------------------------------------
     -0.00000     -0.00266      7.72083        -0.000008     -0.004370      0.003378
     -0.00000     -0.00137      3.86045        -0.000004      0.000529     -0.000501
      0.00000      3.86046     -0.00136        -0.000005      0.000826     -0.000807
     -0.00000      3.85915      3.85899        -0.000013     -0.003502      0.004474
      3.98237      0.00002      0.00001         0.000003     -0.000229     -0.000183
      3.98237     -0.00134      3.86037         0.000002      0.000576      0.000318
      3.98237      3.85776      7.71944         0.000002     -0.000039      0.000639
      3.98237      3.85913      3.85908         0.000004     -0.000820     -0.000488
      3.98237      1.92569     -0.00059        -0.000003      0.000992     -0.000358
      3.98237      1.93333      3.85976        -0.000001     -0.000553     -0.000035
      3.98237      5.79242      7.71881        -0.000000     -0.000775     -0.000060
      3.98237      5.78480      3.85845        -0.000001      0.000603     -0.000064
      3.98237      7.72018      1.92297        -0.000001      0.000055      0.000964
      3.98237      7.71873      5.79244        -0.000001      0.000322     -0.001050
      3.98237      3.85966      1.93335        -0.000001      0.000332     -0.000552
      3.98237      3.85836      5.78481        -0.000001      0.000100      0.000452
      1.86649      7.72079     -0.00259         0.000140      0.000308     -0.000315
      1.90381     -0.00117      3.86028         0.000235     -0.000642      0.000509
      1.90381      3.85792      7.71936         0.000228     -0.000659      0.000495
      1.86649      3.85894      3.85922         0.000252      0.000358     -0.000290
      6.09824      7.72079     -0.00259        -0.000132      0.000307     -0.000315
      6.06093     -0.00117      3.86028        -0.000232     -0.000643      0.000510
      6.06093      3.85792      7.71936        -0.000224     -0.000658      0.000495
      6.09824      3.85894      3.85922        -0.000242      0.000358     -0.000291
      0.00000      1.87517     -0.00009         0.000000      0.003570     -0.000772
     -0.00000      1.98385      3.85914         0.000000     -0.000017      0.000760
      7.96474      5.84294      7.71820         0.000001      0.000306      0.000820
      7.96474      5.73426      3.85896         0.000000      0.003268     -0.000763
      0.00000     -0.00020      1.87523         0.000000     -0.000868      0.000163
      7.96474      7.71840      5.84299         0.000000      0.000951     -0.003226
      7.96474      3.85931      1.98393         0.000000      0.000904     -0.003653
      7.96474      3.85890      5.73431         0.000001     -0.000892     -0.000254
 -----------------------------------------------------------------------------------
    total drift:                               -0.000000     -0.000540      0.000456


--------------------------------------------------------------------------------------------------------



  FREE ENERGIE OF THE ION-ELECTRON SYSTEM (eV)
  ---------------------------------------------------
  free  energy   TOTEN  =      -206.26515473 eV

  energy  without entropy=     -206.26515473  energy(sigma->0) =     -206.26515473
 


--------------------------------------------------------------------------------------------------------


    POTLOK:  cpu time    1.0238: real time    1.0222


--------------------------------------------------------------------------------------------------------


 stress matrix after NEB project (eV)
      0.05040      0.00000      0.00001
      0.00000      0.04131      0.04819
      0.00001      0.04820      0.04503
  FORCES: max atom, RMS     0.005682    0.002005
  FORCE total and by dimension    0.011340    0.004474
  Stress total and by dimension    0.104499    0.050396
 Quasi-Newton relaxation of ions (Broydens 2nd method)
  g(Force)  = 0.620E-05   g(Stress)= 0.165E-04

 Reset! Starting new Quasi-Newton update for ions 


--------------------------------------------------------------------------------------------------------


  
 reached required accuracy - stopping structural energy minimisation
 writing wavefunctions
     LOOP+:  cpu time  226.0096: real time  229.5466
    4ORBIT:  cpu time    0.0000: real time    0.0000
 


 total charge     
 
# of ion       s       p       d       tot
------------------------------------------
    1        0.329   6.522   1.750   8.601
    2        0.242   6.348   1.855   8.445
    3        0.242   6.348   1.855   8.445
    4        0.329   6.522   1.750   8.601
    5        0.296   6.447   1.725   8.468
    6        0.298   6.446   1.705   8.449
    7        0.298   6.446   1.705   8.449
    8        0.296   6.447   1.725   8.468
    9        1.570   3.381   0.000   4.951
   10        1.570   3.381   0.000   4.951
   11        1.570   3.381   0.000   4.951
   12        1.570   3.381   0.000   4.951
   13        1.570   3.381   0.000   4.951
   14        1.570   3.381   0.000   4.951
   15        1.570   3.381   0.000   4.951
   16        1.570   3.381   0.000   4.951
   17        1.733   4.366   0.000   6.099
   18        1.730   4.381   0.000   6.112
   19        1.730   4.381   0.000   6.112
   20        1.733   4.366   0.000   6.099
   21        1.733   4.366   0.000   6.099
   22        1.730   4.381   0.000   6.112
   23        1.730   4.381   0.000   6.112
   24        1.733   4.366   0.000   6.099
   25        1.731   4.399   0.000   6.130
   26        1.731   4.399   0.000   6.130
   27        1.731   4.399   0.000   6.130
   28        1.731   4.399   0.000   6.130
   29        1.731   4.399   0.000   6.130
   30        1.731   4.399   0.000   6.130
   31        1.731   4.399   0.000   6.130
   32        1.731   4.399   0.000   6.130
--------------------------------------------------
tot         42.595 148.754  14.068 205.417
 


 magnetization (x)
 
# of ion       s       p       d       tot
------------------------------------------
    1       -0.000   0.000   0.049   0.049
    2        0.004   0.006   0.905   0.916
    3        0.004   0.006   0.905   0.916
    4       -0.000   0.000   0.049   0.049
    5       -0.000  -0.000   0.000   0.000
    6       -0.000  -0.000   0.000  -0.000
    7       -0.000  -0.000   0.000  -0.000
    8       -0.000  -0.000   0.000   0.000
    9       -0.000  -0.001   0.000  -0.001
   10       -0.000  -0.001   0.000  -0.001
   11       -0.000  -0.001   0.000  -0.001
   12       -0.000  -0.001   0.000  -0.001
   13       -0.000  -0.001   0.000  -0.001
   14       -0.000  -0.001   0.000  -0.001
   15       -0.000  -0.001   0.000  -0.001
   16       -0.000  -0.001   0.000  -0.001
   17       -0.000  -0.001   0.000  -0.001
   18       -0.000  -0.012   0.000  -0.012
   19       -0.000  -0.012   0.000  -0.012
   20       -0.000  -0.001   0.000  -0.001
   21       -0.000  -0.001   0.000  -0.001
   22       -0.000  -0.012   0.000  -0.012
   23       -0.000  -0.012   0.000  -0.012
   24       -0.000  -0.001   0.000  -0.001
   25       -0.000   0.001   0.000   0.001
   26       -0.000   0.001   0.000   0.001
   27       -0.000   0.001   0.000   0.001
   28       -0.000   0.001   0.000   0.001
   29       -0.000   0.001   0.000   0.001
   30       -0.000   0.001   0.000   0.001
   31       -0.000   0.001   0.000   0.001
   32       -0.000   0.001   0.000   0.001
--------------------------------------------------
tot          0.004  -0.035   1.907   1.877
 

 total amount of memory used by VASP MPI-rank0   107911. kBytes
=======================================================================

   base      :      30000. kBytes
   nonlr-proj:       8316. kBytes
   fftplans  :       8424. kBytes
   grid      :       8783. kBytes
   one-center:        124. kBytes
   wavefun   :      52264. kBytes
 
  
  
 General timing and accounting informations for this job:
 ========================================================
  
                  Total CPU time used (sec):      276.459
                            User time (sec):      238.268
                          System time (sec):       38.191
                         Elapsed time (sec):      293.241
  
                   Maximum memory used (kb):      223092.
                   Average memory used (kb):           0.
  
                          Minor page faults:       122039
                          Major page faults:            2
                 Voluntary context switches:        71630
