 vasp.5.4.4.18Apr17-6-g9f103f2a35 (build Apr 30 2017 20:10:35) complex          
  
 executed on             LinuxIFC date 2017.08.04  21:07:52
 running on   64 total cores
 distrk:  each k-point on   64 cores,    1 groups
 distr:  one band on NCORES_PER_BAND=   8 cores,    8 groups


--------------------------------------------------------------------------------------------------------


 INCAR:
 POTCAR:   PAW_PBE Ti_pv 07Sep2000                
 POTCAR:   PAW_PBE O 08Apr2002                    
 POTCAR:    PAW_PBE F 08Apr2002                   
 POTCAR:   PAW_PBE Ti_pv 07Sep2000                
   VRHFIN =Ti: d3 s1                                                            
   LEXCH  = PE                                                                  
   EATOM  =  1042.3781 eV,   76.6126 Ry                                         
                                                                                
   TITEL  = PAW_PBE Ti_pv 07Sep2000                                             
   LULTRA =        F    use ultrasoft PP ?                                      
   IUNSCR =        1    unscreen: 0-lin 1-nonlin 2-no                           
   RPACOR =    2.200    partial core radius                                     
   POMASS =   47.880; ZVAL   =   10.000    mass and valenz                      
   RCORE  =    2.500    outmost cutoff radius                                   
   RWIGS  =    2.500; RWIGS  =    1.323    wigner-seitz radius (au A)           
   ENMAX  =  222.338; ENMIN  =  166.753 eV                                      
   RCLOC  =    1.701    cutoff for local pot                                    
   LCOR   =        T    correct aug charges                                     
   LPAW   =        T    paw PP                                                  
   EAUG   =  482.848                                                            
   DEXC   =    -.008                                                            
   RMAX   =    3.092    core radius for proj-oper                               
   RAUG   =    1.300    factor for augmentation sphere                          
   RDEP   =    2.538    radius for radial grids                                 
   QCUT   =   -4.042; QGAM   =    8.085    optimization parameters              
                                                                                
   Description                                                                  
     l     E      TYP  RCUT    TYP  RCUT                                        
     1   .000     23  2.300                                                     
     1  -.100     23  2.300                                                     
     2   .000     23  2.500                                                     
     2   .000     23  2.500                                                     
     0   .000     23  2.500                                                     
     0  1.500     23  2.500                                                     
     3   .000      7   .000                                                     
  local pseudopotential read in
  partial core-charges read in
  atomic valenz-charges read in
  non local Contribution for L=           1  read in
    real space projection operators read in
  non local Contribution for L=           1  read in
    real space projection operators read in
  non local Contribution for L=           2  read in
    real space projection operators read in
  non local Contribution for L=           2  read in
    real space projection operators read in
  non local Contribution for L=           0  read in
    real space projection operators read in
  non local Contribution for L=           0  read in
    real space projection operators read in
    PAW grid and wavefunctions read in
 
   number of l-projection  operators is LMAX  =           6
   number of lm-projection operators is LMMAX =          18
 
 POTCAR:   PAW_PBE O 08Apr2002                    
   VRHFIN =O: s2p4                                                              
   LEXCH  = PE                                                                  
   EATOM  =   432.3788 eV,   31.7789 Ry                                         
                                                                                
   TITEL  = PAW_PBE O 08Apr2002                                                 
   LULTRA =        F    use ultrasoft PP ?                                      
   IUNSCR =        0    unscreen: 0-lin 1-nonlin 2-no                           
   RPACOR =     .000    partial core radius                                     
   POMASS =   16.000; ZVAL   =    6.000    mass and valenz                      
   RCORE  =    1.520    outmost cutoff radius                                   
   RWIGS  =    1.550; RWIGS  =     .820    wigner-seitz radius (au A)           
   ENMAX  =  400.000; ENMIN  =  300.000 eV                                      
   ICORE  =        2    local potential                                         
   LCOR   =        T    correct aug charges                                     
   LPAW   =        T    paw PP                                                  
   EAUG   =  605.392                                                            
   DEXC   =     .000                                                            
   RMAX   =    2.264    core radius for proj-oper                               
   RAUG   =    1.300    factor for augmentation sphere                          
   RDEP   =    1.550    radius for radial grids                                 
   QCUT   =   -5.520; QGAM   =   11.041    optimization parameters              
                                                                                
   Description                                                                  
     l     E      TYP  RCUT    TYP  RCUT                                        
     0   .000     23  1.200                                                     
     0  -.700     23  1.200                                                     
     1   .000     23  1.520                                                     
     1   .600     23  1.520                                                     
     2   .000      7  1.500                                                     
  local pseudopotential read in
  atomic valenz-charges read in
  non local Contribution for L=           0  read in
    real space projection operators read in
  non local Contribution for L=           0  read in
    real space projection operators read in
  non local Contribution for L=           1  read in
    real space projection operators read in
  non local Contribution for L=           1  read in
    real space projection operators read in
    PAW grid and wavefunctions read in
 
   number of l-projection  operators is LMAX  =           4
   number of lm-projection operators is LMMAX =           8
 
 POTCAR:    PAW_PBE F 08Apr2002                   
   VRHFIN =F: s2p5                                                              
   LEXCH  = PE                                                                  
   EATOM  =   659.6475 eV,   48.4827 Ry                                         
                                                                                
   TITEL  = PAW_PBE F 08Apr2002                                                 
   LULTRA =        F    use ultrasoft PP ?                                      
   IUNSCR =        1    unscreen: 0-lin 1-nonlin 2-no                           
   RPACOR =    1.200    partial core radius                                     
   POMASS =   18.998; ZVAL   =    7.000    mass and valenz                      
   RCORE  =    1.520    outmost cutoff radius                                   
   RWIGS  =    1.500; RWIGS  =    0.794    wigner-seitz radius (au A)           
   ENMAX  =  400.000; ENMIN  =  300.000 eV                                      
   ICORE  =        2    local potential                                         
   LCOR   =        T    correct aug charges                                     
   LPAW   =        T    paw PP                                                  
   EAUG   =  613.614                                                            
   RMAX   =    1.555    core radius for proj-oper                               
   RAUG   =    1.300    factor for augmentation sphere                          
   RDEP   =    1.539    radius for radial grids                                 
   RDEPT  =    1.299    core radius for aug-charge                              
                                                                                
   Atomic configuration                                                         
    4 entries                                                                   
     n  l   j            E        occ.                                          
     1  0  0.50      -663.3661   2.0000                                         
     2  0  0.50       -29.8995   2.0000                                         
     2  1  0.50       -11.1114   5.0000                                         
     3  2  1.50       -10.8847   0.0000                                         
   Description                                                                  
     l       E           TYP  RCUT    TYP  RCUT                                 
     0    -29.8995018     23  1.200                                             
     0     -9.5240782     23  1.200                                             
     1    -11.1113914     23  1.520                                             
     1      1.3605826     23  1.520                                             
     2    -10.8846608      7  1.500                                             
  local pseudopotential read in
  partial core-charges read in
  partial kinetic energy density read in
  atomic valenz-charges read in
  non local Contribution for L=           0  read in
    real space projection operators read in
  non local Contribution for L=           0  read in
    real space projection operators read in
  non local Contribution for L=           1  read in
    real space projection operators read in
  non local Contribution for L=           1  read in
    real space projection operators read in
    PAW grid and wavefunctions read in
 
   number of l-projection  operators is LMAX  =           4
   number of lm-projection operators is LMMAX =           8
 
 Optimization of the real space projectors (new method)

 maximal supplied QI-value         = 15.12
 optimisation between [QCUT,QGAM] = [ 13.45, 27.06] = [ 50.69,205.06] Ry 
 Optimized for a Real-space Cutoff    1.49 Angstroem

   l    n(q)    QCUT    max X(q) W(low)/X(q) W(high)/X(q)  e(spline) 
   1     12    13.455     4.841    0.13E-05    0.83E-06    0.56E-07
   1     12    13.455     5.701    0.32E-04    0.25E-04    0.17E-06
   2     11    13.455     4.569    0.64E-05    0.34E-05    0.50E-07
   2     11    13.455    32.276    0.49E-04    0.38E-04    0.46E-06
   0     12    13.455    30.046    0.17E-04    0.41E-05    0.51E-07
   0     12    13.455    45.433    0.12E-04    0.27E-04    0.38E-06
 Optimization of the real space projectors (new method)

 maximal supplied QI-value         = 24.76
 optimisation between [QCUT,QGAM] = [ 13.37, 26.98] = [ 50.04,203.89] Ry 
 Optimized for a Real-space Cutoff    1.17 Angstroem

   l    n(q)    QCUT    max X(q) W(low)/X(q) W(high)/X(q)  e(spline) 
   0      9    13.368     4.192    0.20E-04    0.58E-05    0.56E-07
   0      9    13.368     8.473    0.60E-04    0.52E-04    0.21E-06
   1      9    13.368     2.474    0.22E-04    0.17E-04    0.28E-07
   1      9    13.368     3.912    0.94E-04    0.97E-04    0.20E-06
 Optimization of the real space projectors (new method)

 maximal supplied QI-value         = 24.76
 optimisation between [QCUT,QGAM] = [ 13.37, 26.98] = [ 50.04,203.89] Ry 
 Optimized for a Real-space Cutoff    1.17 Angstroem

   l    n(q)    QCUT    max X(q) W(low)/X(q) W(high)/X(q)  e(spline) 
   0      9    13.368    14.049    0.39E-04    0.34E-04    0.16E-06
   0      9    13.368     8.945    0.54E-04    0.47E-04    0.20E-06
   1      9    13.368     7.086    0.99E-04    0.10E-03    0.23E-06
   1      9    13.368     6.747    0.86E-04    0.89E-04    0.21E-06

 ----------------------------------------------------------------------------- 
|                                                                             |
|  ADVICE TO THIS USER RUNNING 'VASP/VAMP'   (HEAR YOUR MASTER'S VOICE ...):  |
|                                                                             |
|      You enforced a specific xc-type in the INCAR file,                     |
|      a different type was found on the POTCAR file                          |
|          I HOPE YOU KNOW, WHAT YOU ARE  DOING                               |
|                                                                             |
 ----------------------------------------------------------------------------- 

 PAW_PBE Ti_pv 07Sep2000                :
 energy of atom  1       EATOM=-1042.3781
 kinetic energy error for atom=    0.0006 (will be added to EATOM!!)
 PAW_PBE O 08Apr2002                    :
 energy of atom  2       EATOM= -432.3788
 kinetic energy error for atom=    0.0091 (will be added to EATOM!!)
  PAW_PBE F 08Apr2002                   :
 energy of atom  3       EATOM= -659.6475
 kinetic energy error for atom=    0.0140 (will be added to EATOM!!)
 
 
 POSCAR: TiOF2 2x2x2 config 1122                 
  positions in direct lattice
  velocities in cartesian coordinates
 exchange correlation table for  LEXCH =       14
   RHO(1)=    0.500       N(1)  =     2000
   RHO(2)=  100.500       N(2)  =     4000

 VTST: version 3.1, (03/28/14)

 CHAIN: initializing optimizer
 
 OPT: Using VASP QUASI-newton optimizer
 CHAIN: Read ICHAIN            0
 
 POSCAR: TiOF2 2x2x2 config 1122                 
  positions in direct lattice
  velocities in cartesian coordinates
 


--------------------------------------------------------------------------------------------------------


 ion  position               nearest neighbor table
   1  0.001  1.000  0.985-  13 1.80  25 1.89  23 1.89  17 1.92  21 1.92  29 2.02
   2  0.001  1.000  0.510-  13 1.85  18 1.88  22 1.88  24 1.89  26 1.89  29 2.01
   3  0.984  0.500  0.016-  14 1.80   9 1.81  25 1.99  23 1.99  30 2.03  19 2.05
   4  0.982  0.500  0.490-  10 1.77  14 1.86  24 1.99  26 1.99  30 2.02  20 2.04
   5  0.500  1.000  0.983-  15 1.73  28 1.92  27 1.92  17 1.98  31 1.99  21 1.99
   6  0.501  0.000  0.501-  11 1.88  12 1.88  15 1.97  31 2.00  18 2.02  22 2.02
   7  0.510  0.500  0.984-  16 1.76   9 1.89  27 1.98  28 1.98  32 2.01  19 2.05
   8  0.505  0.500  0.506-  16 1.91  10 1.95  12 1.99  11 1.99  32 2.01  20 2.03
   9  0.752  0.500  0.999-   3 1.81   7 1.89
  10  0.755  0.500  0.502-   4 1.77   8 1.95
  11  0.501  0.243  0.499-   6 1.88   8 1.99
  12  0.501  0.757  0.499-   6 1.88   8 1.99
  13  0.000  1.000  0.751-   1 1.80   2 1.85
  14  0.004  0.500  0.250-   3 1.80   4 1.86
  15  0.501  1.000  0.758-   5 1.73   6 1.97
  16  0.496  0.500  0.755-   7 1.76   8 1.91
  17  0.247  1.000  0.008-   1 1.92   5 1.98
  18  0.242  1.000  0.491-   2 1.88   6 2.02
  19  0.247  0.500  0.999-   7 2.05   3 2.05
  20  0.243  0.500  0.503-   8 2.03   4 2.04
  21  0.755  1.000  0.008-   1 1.92   5 1.99
  22  0.761  1.000  0.491-   2 1.88   6 2.02
  23  0.004  0.244  0.001-   1 1.89   3 1.99
  24  0.004  0.244  0.500-   2 1.89   4 1.99
  25  0.004  0.756  0.001-   1 1.89   3 1.99
  26  0.004  0.756  0.500-   2 1.89   4 1.99
  27  0.497  0.246  0.012-   5 1.92   7 1.98
  28  0.497  0.754  0.012-   5 1.92   7 1.98
  29  0.000  1.000  0.248-   2 2.01   1 2.02
  30  0.009  0.500  0.752-   4 2.02   3 2.03
  31  0.502  1.000  0.241-   5 1.99   6 2.00
  32  0.491  0.500  0.245-   8 2.01   7 2.01
 

IMPORTANT INFORMATION: All symmetrisations will be switched off!
NOSYMM: (Re-)initialisation of all symmetry stuff for point group C_1.

 
 
 KPOINTS: Title                                   

Automatic generation of k-mesh.
Space group operators:
 irot       det(A)        alpha          n_x          n_y          n_z        tau_x        tau_y        tau_z
    1     1.000000     0.000000     1.000000     0.000000     0.000000     0.000000     0.000000     0.000000
 
 Subroutine IBZKPT returns following result:
 ===========================================
 
 Found      4 irreducible k-points:
 
 Following reciprocal coordinates:
            Coordinates               Weight
  0.250000  0.250000  0.250000      2.000000
 -0.250000  0.250000  0.250000      2.000000
  0.250000 -0.250000  0.250000      2.000000
 -0.250000 -0.250000  0.250000      2.000000
 
 Following cartesian coordinates:
            Coordinates               Weight
  0.032143  0.032310  0.032555      2.000000
 -0.032116  0.032310  0.032528      2.000000
  0.032143 -0.032310  0.032555      2.000000
 -0.032116 -0.032310  0.032528      2.000000
 


--------------------------------------------------------------------------------------------------------




 Dimension of arrays:
   k-points           NKPTS =      4   k-points in BZ     NKDIM =      4   number of bands    NBANDS=    160
   number of dos      NEDOS =   3001   number of ions     NIONS =     32
   non local maximal  LDIM  =      6   non local SUM 2l+1 LMDIM =     18
   total plane-waves  NPLWV = 343000
   max r-space proj   IRMAX =  10282   max aug-charges    IRDMAX= 230500
   dimension x,y,z NGX =    70 NGY =   70 NGZ =   70
   dimension x,y,z NGXF=   140 NGYF=  140 NGZF=  140
   support grid    NGXF=   280 NGYF=  280 NGZF=  280
   ions per type =               8   8  16
   NGX,Y,Z   is equivalent  to a cutoff of  14.96, 15.04, 15.15 a.u.
   NGXF,Y,Z  is equivalent  to a cutoff of  29.91, 30.08, 30.30 a.u.

 SYSTEM =  LTO                                     
 POSCAR =  TiOF2 2x2x2 config 1122                 

 Startparameter for this run:
   NWRITE =      2    write-flag & timer
   PREC   = accura    normal or accurate (medium, high low for compatibility)
   ISTART =      1    job   : 0-new  1-cont  2-samecut
   ICHARG =      0    charge: 1-file 2-atom 10-const
   ISPIN  =      2    spin polarized calculation?
   LNONCOLLINEAR =      F non collinear calculations
   LSORBIT =      F    spin-orbit coupling
   INIWAV =      1    electr: 0-lowe 1-rand  2-diag
   LASPH  =      T    aspherical Exc in radial PAW
   METAGGA=      F    non-selfconsistent MetaGGA calc.

 Electronic Relaxation 1
   ENCUT  =  700.0 eV  51.45 Ry    7.17 a.u.  16.79 16.69 16.57*2*pi/ulx,y,z
   ENINI  =  700.0     initial cutoff
   ENAUG  =  613.6 eV  augmentation charge cutoff
   NELM   =     60;   NELMIN=  2; NELMDL=  0     # of ELM steps 
   EDIFF  = 0.1E-05   stopping-criterion for ELM
   LREAL  =      T    real-space projection
   NLSPLINE    = F    spline interpolate recip. space projectors
   LCOMPAT=      F    compatible to vasp.4.4
   GGA_COMPAT  = T    GGA compatible to vasp.4.4-vasp.4.6
   LMAXPAW     = -100 max onsite density
   LMAXMIX     =    4 max onsite mixed and CHGCAR
   VOSKOWN=      0    Vosko Wilk Nusair interpolation
   ROPT   =   -0.00010  -0.00010  -0.00010
 Ionic relaxation
   EDIFFG = -.1E-01   stopping-criterion for IOM
   NSW    =    100    number of steps for IOM
   NBLOCK =      1;   KBLOCK =    100    inner block; outer block 
   IBRION =      1    ionic relax: 0-MD 1-quasi-New 2-CG
   NFREE  =      0    steps in history (QN), initial steepest desc. (CG)
   ISIF   =      3    stress and relaxation
   IWAVPR =     11    prediction:  0-non 1-charg 2-wave 3-comb
   ISYM   =      0    0-nonsym 1-usesym 2-fastsym
   LCORR  =      T    Harris-Foulkes like correction to forces

   POTIM  = 0.5000    time-step for ionic-motion
   TEIN   =    0.0    initial temperature
   TEBEG  =    0.0;   TEEND  =   0.0 temperature during run
   SMASS  =  -3.00    Nose mass-parameter (am)
   estimated Nose-frequenzy (Omega)   =  0.10E-29 period in steps =****** mass=  -0.138E-26a.u.
   SCALEE = 1.0000    scale energy and forces
   NPACO  =    256;   APACO  = 16.0  distance and # of slots for P.C.
   PSTRESS=    0.0 pullay stress

  Mass of Ions in am
   POMASS =  47.88 16.00 19.00
  Ionic Valenz
   ZVAL   =  10.00  6.00  7.00
  Atomic Wigner-Seitz radii
   RWIGS  =  -1.00 -1.00 -1.00
  virtual crystal weights 
   VCA    =   1.00  1.00  1.00
   NELECT =     240.0000    total number of electrons
   NUPDOWN=      -1.0000    fix difference up-down

 DOS related values:
   EMIN   =  10.00;   EMAX   =-10.00  energy-range for DOS
   EFERMI =   0.00
   ISMEAR =     0;   SIGMA  =   0.01  broadening in eV -4-tet -1-fermi 0-gaus

 Electronic relaxation 2 (details)
   IALGO  =     38    algorithm
   LDIAG  =      T    sub-space diagonalisation (order eigenvalues)
   LSUBROT=      F    optimize rotation matrix (better conditioning)
   TURBO    =      0    0=normal 1=particle mesh
   IRESTART =      0    0=no restart 2=restart with 2 vectors
   NREBOOT  =      0    no. of reboots
   NMIN     =      0    reboot dimension
   EREF     =   0.00    reference energy to select bands
   IMIX   =      4    mixing-type and parameters
     AMIX     =   0.40;   BMIX     =  1.00
     AMIX_MAG =   1.60;   BMIX_MAG =  1.00
     AMIN     =   0.10
     WC   =   100.;   INIMIX=   1;  MIXPRE=   1;  MAXMIX= -45

 Intra band minimization:
   WEIMIN = 0.0010     energy-eigenvalue tresh-hold
   EBREAK =  0.16E-08  absolut break condition
   DEPER  =   0.30     relativ break condition  

   TIME   =   0.40     timestep for ELM

  volume/ion in A,a.u.               =      14.45        97.54
  Fermi-wavevector in a.u.,A,eV,Ry     =   1.315522  2.485977 23.546228  1.730599
  Thomas-Fermi vector in A             =   2.445699
 
 Write flags
   LWAVE        =      T    write WAVECAR
   LDOWNSAMPLE  =      F    k-point downsampling of WAVECAR
   LCHARG       =      T    write CHGCAR
   LVTOT        =      F    write LOCPOT, total local potential
   LVHAR        =      F    write LOCPOT, Hartree potential only
   LELF         =      F    write electronic localiz. function (ELF)
   LORBIT       =     11    0 simple, 1 ext, 2 COOP (PROOUT), +10 PAW based schemes


 Dipole corrections
   LMONO  =      F    monopole corrections only (constant potential shift)
   LDIPOL =      F    correct potential (dipole corrections)
   IDIPOL =      0    1-x, 2-y, 3-z, 4-all directions 
   EPSILON=  1.0000000 bulk dielectric constant

 LDA+U is selected, type is set to LDAUTYPE =  2
   angular momentum for each species LDAUL =     2   -1   -1
   U (eV)           for each species LDAUU =   4.2  0.0  0.0
   J (eV)           for each species LDAUJ =   0.0  0.0  0.0
 Exchange correlation treatment:
   GGA     =    PS    GGA type
   LEXCH   =    14    internal setting for exchange type
   VOSKOWN=      0    Vosko Wilk Nusair interpolation
   LHFCALC =     F    Hartree Fock is set to
   LHFONE  =     F    Hartree Fock one center treatment
   AEXX    =    0.0000 exact exchange contribution

 Linear response parameters
   LEPSILON=     F    determine dielectric tensor
   LRPA    =     F    only Hartree local field effects (RPA)
   LNABLA  =     F    use nabla operator in PAW spheres
   LVEL    =     F    velocity operator in full k-point grid
   LINTERFAST=   F  fast interpolation
   KINTER  =     0    interpolate to denser k-point grid
   CSHIFT  =0.1000    complex shift for real part using Kramers Kronig
   OMEGAMAX=  -1.0    maximum frequency
   DEG_THRESHOLD= 0.2000000E-02 threshold for treating states as degnerate
   RTIME   =   -0.100 relaxation time in fs
  (WPLASMAI=    0.000 imaginary part of plasma frequency in eV, 0.658/RTIME)
   DFIELD  = 0.0000000 0.0000000 0.0000000 field for delta impulse in time
 
 Orbital magnetization related:
   ORBITALMAG=     F  switch on orbital magnetization
   LCHIMAG   =     F  perturbation theory with respect to B field
   DQ        =  0.001000  dq finite difference perturbation B field
   LLRAUG    =     F  two centre corrections for induced B field



--------------------------------------------------------------------------------------------------------


 quasi-Newton-method for relaxation of ions
 charge density and potential will be updated during run
 spin polarized calculation
 Variant of blocked Davidson
 Davidson routine will perform the subspace rotation
 perform sub-space diagonalisation
    after iterative eigenvector-optimisation
 modified Broyden-mixing scheme, WC =      100.0
 initial mixing is a Kerker type mixing with AMIX =  0.4000 and BMIX =      1.0000
 Hartree-type preconditioning will be used
 using additional bands           40
 real space projection scheme for non local part
 use partial core corrections
 calculate Harris-corrections to forces 
   (improved forces if not selfconsistent)
 use gradient corrections 
 use of overlap-Matrix (Vanderbilt PP)
 Gauss-broadening in eV      SIGMA  =   0.01


--------------------------------------------------------------------------------------------------------


  energy-cutoff  :      700.00
  volume of cell :      462.53
      direct lattice vectors                 reciprocal lattice vectors
     7.781046084  0.000010839 -0.003283712     0.128517447 -0.000000179  0.000055108
     0.000010786  7.737502500  0.000025362    -0.000000180  0.129240669 -0.000000424
    -0.003294251  0.000025178  7.682496692     0.000054932 -0.000000427  0.130166041

  length of vectors
     7.781046777  7.737502500  7.682497398     0.128517459  0.129240669  0.130166053


 
 old parameters found on file WAVECAR:
  energy-cutoff  :      700.00
  volume of cell :      438.28
      direct lattice vectors                 reciprocal lattice vectors
     7.596000000  0.000000000  0.000000000     0.131648236  0.000000000  0.000000000
     0.000000000  7.596000000  0.000000000     0.000000000  0.131648236  0.000000000
     0.000000000  0.000000000  7.596000000     0.000000000  0.000000000  0.131648236

  length of vectors

 
 k-points in units of 2pi/SCALE and weight: Title                                   
   0.03214305  0.03231002  0.03255518       0.250
  -0.03211567  0.03231011  0.03252763       0.250
   0.03214314 -0.03231032  0.03255539       0.250
  -0.03211558 -0.03231023  0.03252784       0.250
 
 k-points in reciprocal lattice and weights: Title                                   
   0.25000000  0.25000000  0.25000000       0.250
  -0.25000000  0.25000000  0.25000000       0.250
   0.25000000 -0.25000000  0.25000000       0.250
  -0.25000000 -0.25000000  0.25000000       0.250
 
 position of ions in fractional coordinates (direct lattice) 
   0.00090391  0.99999998  0.98532208
   0.00140728  0.99999739  0.51007299
   0.98432332  0.49999988  0.01574490
   0.98172080  0.49999671  0.49026951
   0.50023348  0.99999616  0.98270396
   0.50083995  0.00008545  0.50147102
   0.50963317  0.49999594  0.98368543
   0.50479696  0.50014020  0.50624589
   0.75243642  0.50000001  0.99887367
   0.75517150  0.49999415  0.50177514
   0.50056439  0.24326755  0.49886752
   0.50056498  0.75661368  0.49886880
   0.00004136  0.99999993  0.75112827
   0.00407145  0.49999983  0.24950409
   0.50137693  0.99999189  0.75806460
   0.49566144  0.49999053  0.75509524
   0.24658501  0.99999983  0.00782295
   0.24206311  0.99998991  0.49115739
   0.24722442  0.49999987  0.99895324
   0.24334293  0.49999019  0.50268375
   0.75471463  0.99999990  0.00782316
   0.76051218  0.99999163  0.49096270
   0.00404802  0.24388229  0.00125534
   0.00425455  0.24381750  0.49993189
   0.00404806  0.75611749  0.00125557
   0.00425363  0.75617721  0.49993279
   0.49673795  0.24634653  0.01182790
   0.49673774  0.75364568  0.01182840
   0.00012541  0.99999986  0.24815309
   0.00902155  0.49999995  0.75232343
   0.50151577  0.99998677  0.24140877
   0.49106769  0.49998610  0.24498650
 
 position of ions in cartesian coordinates  (Angst):
   0.00379826  7.73752718  7.56975602
   0.00928055  7.73749519  3.91865482
   7.65901866  3.86876137  0.11774057
   7.63720507  3.86874874  3.76328287
   3.88911328  7.73750298  7.54800269
   3.89540678  0.00067924  3.85090486
   3.96224409  3.86875014  7.55549929
   3.92618613  3.86985428  3.88758748
   5.85145732  3.86878466  7.67138554
   5.87437668  3.86872678  3.85241874
   3.89327378  1.88230128  3.83091055
   3.89328393  5.85431823  3.83093337
  -0.00214181  7.73752087  5.77056568
   0.03086362  3.86875623  1.91681368
   3.89875052  7.73746424  5.82220774
   3.85428240  3.86870232  5.79940173
   1.91867436  7.73750403  0.05931540
   1.88189700  7.73743943  3.77254551
   1.92037923  3.86877810  7.67365586
   1.89181201  3.86869064  3.86107990
   5.87245433  7.73751010  0.05764848
   5.91597378  7.73745838  3.76934737
   0.03149632  1.88703990  0.00963704
   0.03146058  1.88655114  3.84071728
   0.03150213  5.85046105  0.00965182
   0.03145898  5.85093571  3.84073723
   3.86510456  1.90611255  0.08924294
   3.86510844  5.83134105  0.08925960
   0.00016912  7.73750765  1.90646026
   0.06772413  3.86876993  5.77970533
   3.90153288  7.73741164  1.85300063
   3.82021866  3.86865518  1.88050815
 


--------------------------------------------------------------------------------------------------------


 k-point  1 :   0.2500 0.2500 0.2500  plane waves:   19447
 k-point  2 :  -0.2500 0.2500 0.2500  plane waves:   19452
 k-point  3 :   0.2500-0.2500 0.2500  plane waves:   19447
 k-point  4 :  -0.2500-0.2500 0.2500  plane waves:   19452

 maximum and minimum number of plane-waves per node :      2463     2419

 maximum number of plane-waves:     19452
 maximum index in each direction: 
   IXMAX=   17   IYMAX=   16   IZMAX=   16
   IXMIN=  -17   IYMIN=  -16   IZMIN=  -16


 real space projection operators:
  total allocation   :      18505.88 KBytes
  max/ min on nodes  :       2463.41       1927.06


 parallel 3D FFT for wavefunctions:
    minimum data exchange during FFTs selected (reduces bandwidth)
 parallel 3D FFT for charge:
    minimum data exchange during FFTs selected (reduces bandwidth)


 total amount of memory used by VASP MPI-rank0    62266. kBytes
=======================================================================

   base      :      30000. kBytes
   nonlr-proj:       8588. kBytes
   fftplans  :       8423. kBytes
   grid      :       8783. kBytes
   one-center:        124. kBytes
   wavefun   :       6348. kBytes
 
     INWAV:  cpu time    3.7264: real time    4.3813
 Broyden mixing: mesh for mixing (old mesh)
   NGX = 33   NGY = 33   NGZ = 33
  (NGX  =140   NGY  =140   NGZ  =140)
  gives a total of  35937 points

 charge density for first step will be calculated from the start-wavefunctions


--------------------------------------------------------------------------------------------------------


 Maximum index for non-local projection operator         1385
 Maximum index for augmentation-charges         7740 (set IRDMAX)


--------------------------------------------------------------------------------------------------------


 initial charge from wavefunction
 First call to EWALD:  gamma=   0.229
 Maximum number of real-space cells 3x 3x 3
 Maximum number of reciprocal cells 3x 3x 3

    FEWALD:  cpu time    0.0040: real time    0.0034


--------------------------------------- Iteration      1(   1)  ---------------------------------------


    POTLOK:  cpu time    0.1690: real time    0.2753
    SETDIJ:  cpu time    0.8419: real time    0.8412
     EDDAV:  cpu time    3.7214: real time    3.7205
       DOS:  cpu time    0.0010: real time    0.0009
    CHARGE:  cpu time    0.3839: real time    0.3835
    MIXING:  cpu time    0.0110: real time    0.0104
    --------------------------------------------
      LOOP:  cpu time    5.1282: real time    5.2319

 eigenvalue-minimisations  :  2560
 total energy-change (2. order) :-0.2116071E+03  (-0.6903748E-01)
 number of electron     240.0000002 magnetization      -0.0000000
 augmentation part       61.9702951 magnetization      -0.0000000

 Broyden mixing:
  rms(total) = 0.68372E-02    rms(broyden)= 0.64312E-02
  rms(prec ) = 0.68047E-02
  weight for this iteration     100.00

 Free energy of the ion-electron system (eV)
  ---------------------------------------------------
  alpha Z        PSCENC =       757.06472444
  Ewald energy   TEWEN  =    -12758.58011816
  -Hartree energ DENC   =     -8269.74761813
  -exchange      EXHF   =         0.00000000
  -V(xc)+E(xc)   XCENC  =      1119.62082994
  PAW double counting   =     18021.05733432   -18143.91381410
  entropy T*S    EENTRO =        -0.00000000
  eigenvalues    EBANDS =     -3239.46161021
  atomic energy  EATOM  =     22302.35321627
  Solvation  Ediel_sol  =         0.00000000
  ---------------------------------------------------
  free energy    TOTEN  =      -211.60705563 eV

  energy without entropy =     -211.60705563  energy(sigma->0) =     -211.60705563


--------------------------------------------------------------------------------------------------------




--------------------------------------- Iteration      1(   2)  ---------------------------------------


    POTLOK:  cpu time    0.1510: real time    0.2293
    SETDIJ:  cpu time    0.8429: real time    0.8407
     EDDAV:  cpu time    3.6574: real time    3.6565
       DOS:  cpu time    0.0010: real time    0.0009
    CHARGE:  cpu time    0.3839: real time    0.3820
    MIXING:  cpu time    0.0020: real time    0.0025
    --------------------------------------------
      LOOP:  cpu time    5.0382: real time    5.1118

 eigenvalue-minimisations  :  2656
 total energy-change (2. order) :-0.7865311E-04  (-0.2512754E-05)
 number of electron     240.0000002 magnetization      -0.0000000
 augmentation part       61.9714978 magnetization       0.0000000

 Broyden mixing:
  rms(total) = 0.38654E-02    rms(broyden)= 0.38374E-02
  rms(prec ) = 0.40520E-02
  weight for this iteration     100.00

 eigenvalues of (default mixing * dielectric matrix)
  average eigenvalue GAMMA=   2.2739
  2.2739

 Free energy of the ion-electron system (eV)
  ---------------------------------------------------
  alpha Z        PSCENC =       757.06472444
  Ewald energy   TEWEN  =    -12758.58011816
  -Hartree energ DENC   =     -8269.68251522
  -exchange      EXHF   =         0.00000000
  -V(xc)+E(xc)   XCENC  =      1119.61779271
  PAW double counting   =     18021.73315527   -18144.57697876
  entropy T*S    EENTRO =        -0.00000000
  eigenvalues    EBANDS =     -3239.53641084
  atomic energy  EATOM  =     22302.35321627
  Solvation  Ediel_sol  =         0.00000000
  ---------------------------------------------------
  free energy    TOTEN  =      -211.60713428 eV

  energy without entropy =     -211.60713428  energy(sigma->0) =     -211.60713428


--------------------------------------------------------------------------------------------------------




--------------------------------------- Iteration      1(   3)  ---------------------------------------


    POTLOK:  cpu time    0.1400: real time    0.1524
    SETDIJ:  cpu time    0.8479: real time    0.8464
     EDDAV:  cpu time    4.1894: real time    4.1881
       DOS:  cpu time    0.0010: real time    0.0009
    CHARGE:  cpu time    0.3849: real time    0.3820
    MIXING:  cpu time    0.0030: real time    0.0026
    --------------------------------------------
      LOOP:  cpu time    5.5662: real time    5.5724

 eigenvalue-minimisations  :  3168
 total energy-change (2. order) :-0.8595821E-04  (-0.1994550E-05)
 number of electron     240.0000002 magnetization      -0.0000000
 augmentation part       61.9711056 magnetization       0.0000000

 Broyden mixing:
  rms(total) = 0.11501E-02    rms(broyden)= 0.11460E-02
  rms(prec ) = 0.16496E-02
  weight for this iteration     100.00

 eigenvalues of (default mixing * dielectric matrix)
  average eigenvalue GAMMA=   1.5312
  2.4373  0.6251

 Free energy of the ion-electron system (eV)
  ---------------------------------------------------
  alpha Z        PSCENC =       757.06472444
  Ewald energy   TEWEN  =    -12758.58011816
  -Hartree energ DENC   =     -8269.71509063
  -exchange      EXHF   =         0.00000000
  -V(xc)+E(xc)   XCENC  =      1119.61934347
  PAW double counting   =     18022.65084277   -18145.47981859
  entropy T*S    EENTRO =        -0.00000000
  eigenvalues    EBANDS =     -3239.52031982
  atomic energy  EATOM  =     22302.35321627
  Solvation  Ediel_sol  =         0.00000000
  ---------------------------------------------------
  free energy    TOTEN  =      -211.60722024 eV

  energy without entropy =     -211.60722024  energy(sigma->0) =     -211.60722024


--------------------------------------------------------------------------------------------------------




--------------------------------------- Iteration      1(   4)  ---------------------------------------


    POTLOK:  cpu time    0.1930: real time    0.2713
    SETDIJ:  cpu time    0.8419: real time    0.8398
     EDDAV:  cpu time    3.5555: real time    3.5546
       DOS:  cpu time    0.0000: real time    0.0009
    CHARGE:  cpu time    0.3869: real time    0.3848
    MIXING:  cpu time    0.0040: real time    0.0027
    --------------------------------------------
      LOOP:  cpu time    4.9812: real time    5.0541

 eigenvalue-minimisations  :  2528
 total energy-change (2. order) :-0.2218669E-05  (-0.3634653E-06)
 number of electron     240.0000002 magnetization      -0.0000000
 augmentation part       61.9717561 magnetization       0.0000000

 Broyden mixing:
  rms(total) = 0.24716E-03    rms(broyden)= 0.24409E-03
  rms(prec ) = 0.34861E-03
  weight for this iteration     100.00

 eigenvalues of (default mixing * dielectric matrix)
  average eigenvalue GAMMA=   1.3860
  2.4938  1.1153  0.5489

 Free energy of the ion-electron system (eV)
  ---------------------------------------------------
  alpha Z        PSCENC =       757.06472444
  Ewald energy   TEWEN  =    -12758.58011816
  -Hartree energ DENC   =     -8269.72777014
  -exchange      EXHF   =         0.00000000
  -V(xc)+E(xc)   XCENC  =      1119.62092503
  PAW double counting   =     18022.76226186   -18145.59054222
  entropy T*S    EENTRO =        -0.00000000
  eigenvalues    EBANDS =     -3239.50991954
  atomic energy  EATOM  =     22302.35321627
  Solvation  Ediel_sol  =         0.00000000
  ---------------------------------------------------
  free energy    TOTEN  =      -211.60722246 eV

  energy without entropy =     -211.60722246  energy(sigma->0) =     -211.60722246


--------------------------------------------------------------------------------------------------------




--------------------------------------- Iteration      1(   5)  ---------------------------------------


    POTLOK:  cpu time    0.1520: real time    0.1680
    SETDIJ:  cpu time    0.8339: real time    0.8416
     EDDAV:  cpu time    2.4286: real time    2.4384
       DOS:  cpu time    0.0010: real time    0.0010
    --------------------------------------------
      LOOP:  cpu time    3.4155: real time    3.4489

 eigenvalue-minimisations  :  1408
 total energy-change (2. order) :-0.1518310E-06  (-0.7138778E-07)
 number of electron     240.0000002 magnetization      -0.0000000
 augmentation part       61.9717561 magnetization       0.0000000

 Free energy of the ion-electron system (eV)
  ---------------------------------------------------
  alpha Z        PSCENC =       757.06472444
  Ewald energy   TEWEN  =    -12758.58011816
  -Hartree energ DENC   =     -8269.74362598
  -exchange      EXHF   =         0.00000000
  -V(xc)+E(xc)   XCENC  =      1119.62161390
  PAW double counting   =     18022.74305576   -18145.57053561
  entropy T*S    EENTRO =        -0.00000000
  eigenvalues    EBANDS =     -3239.49555323
  atomic energy  EATOM  =     22302.35321627
  Solvation  Ediel_sol  =         0.00000000
  ---------------------------------------------------
  free energy    TOTEN  =      -211.60722261 eV

  energy without entropy =     -211.60722261  energy(sigma->0) =     -211.60722261


--------------------------------------------------------------------------------------------------------




 average (electrostatic) potential at core
  the test charge radii are     1.0397  0.7215  0.7167
  (the norm of the test charge is              1.0000)
       1 -60.2337       2 -60.1367       3 -58.5565       4 -58.3144       5 -59.1290
       6 -58.0521       7 -58.3109       8 -57.9215       9 -73.7407      10 -73.5313
      11 -72.6020      12 -72.5999      13 -75.2318      14 -73.8109      15 -74.3258
      16 -73.5294      17 -80.1711      18 -79.8019      19 -78.1804      20 -77.8780
      21 -80.1818      22 -79.7946      23 -80.1171      24 -79.9086      25 -80.1171
      26 -79.9085      27 -79.4563      28 -79.4563      29 -79.5257      30 -78.4437
      31 -78.6800      32 -78.0103
 
 
 
 E-fermi :   0.0266     XC(G=0):  -8.9779     alpha+bet : -7.6396


 spin component 1

 k-point     1 :       0.2500    0.2500    0.2500
  band No.  band energies     occupation 
      1     -36.2181      1.00000
      2     -36.2015      1.00000
      3     -36.0912      1.00000
      4     -36.0861      1.00000
      5     -36.0306      1.00000
      6     -35.9359      1.00000
      7     -35.2376      1.00000
      8     -35.1506      1.00000
      9     -34.9468      1.00000
     10     -34.6847      1.00000
     11     -34.4279      1.00000
     12     -34.4276      1.00000
     13     -34.3862      1.00000
     14     -34.3849      1.00000
     15     -34.2330      1.00000
     16     -34.2022      1.00000
     17     -34.1881      1.00000
     18     -34.1381      1.00000
     19     -34.1288      1.00000
     20     -34.0459      1.00000
     21     -33.8000      1.00000
     22     -33.7882      1.00000
     23     -33.5993      1.00000
     24     -33.5493      1.00000
     25     -24.0766      1.00000
     26     -23.8747      1.00000
     27     -23.8004      1.00000
     28     -23.6396      1.00000
     29     -23.5611      1.00000
     30     -23.5406      1.00000
     31     -23.3266      1.00000
     32     -23.2694      1.00000
     33     -23.2083      1.00000
     34     -23.1598      1.00000
     35     -22.9164      1.00000
     36     -22.3526      1.00000
     37     -22.1324      1.00000
     38     -21.8444      1.00000
     39     -21.6711      1.00000
     40     -21.5132      1.00000
     41     -17.7059      1.00000
     42     -16.6928      1.00000
     43     -16.3769      1.00000
     44     -16.2128      1.00000
     45     -16.0219      1.00000
     46     -15.8608      1.00000
     47     -15.2957      1.00000
     48     -14.7886      1.00000
     49      -7.5271      1.00000
     50      -7.4531      1.00000
     51      -7.2708      1.00000
     52      -7.1249      1.00000
     53      -6.7745      1.00000
     54      -6.7409      1.00000
     55      -6.4810      1.00000
     56      -6.3428      1.00000
     57      -6.1442      1.00000
     58      -6.0947      1.00000
     59      -6.0286      1.00000
     60      -5.8756      1.00000
     61      -5.8721      1.00000
     62      -5.8033      1.00000
     63      -5.7982      1.00000
     64      -5.7559      1.00000
     65      -5.5571      1.00000
     66      -5.3663      1.00000
     67      -5.3360      1.00000
     68      -5.2561      1.00000
     69      -5.2157      1.00000
     70      -5.1837      1.00000
     71      -5.1325      1.00000
     72      -5.1215      1.00000
     73      -5.0144      1.00000
     74      -4.9930      1.00000
     75      -4.9356      1.00000
     76      -4.9117      1.00000
     77      -4.6992      1.00000
     78      -4.6286      1.00000
     79      -4.6012      1.00000
     80      -4.5487      1.00000
     81      -4.4710      1.00000
     82      -4.3330      1.00000
     83      -4.2488      1.00000
     84      -4.1739      1.00000
     85      -4.1208      1.00000
     86      -4.0765      1.00000
     87      -3.9970      1.00000
     88      -3.9652      1.00000
     89      -3.7064      1.00000
     90      -3.5159      1.00000
     91      -3.4835      1.00000
     92      -3.4405      1.00000
     93      -3.3508      1.00000
     94      -3.3080      1.00000
     95      -3.2770      1.00000
     96      -3.2027      1.00000
     97      -3.0506      1.00000
     98      -3.0299      1.00000
     99      -2.9457      1.00000
    100      -2.9002      1.00000
    101      -2.8745      1.00000
    102      -2.8482      1.00000
    103      -2.8091      1.00000
    104      -2.7057      1.00000
    105      -2.4911      1.00000
    106      -2.2895      1.00000
    107      -2.2826      1.00000
    108      -2.0826      1.00000
    109      -1.9767      1.00000
    110      -1.8617      1.00000
    111      -1.7538      1.00000
    112      -1.7346      1.00000
    113      -1.6399      1.00000
    114      -1.0943      1.00000
    115      -1.0021      1.00000
    116      -0.5776      1.00000
    117      -0.4255      1.00000
    118      -0.2549      1.00000
    119      -0.1093      1.00000
    120      -0.0236      1.00000
    121       1.3384      0.00000
    122       1.3666      0.00000
    123       1.5362      0.00000
    124       1.8251      0.00000
    125       2.3889      0.00000
    126       2.4138      0.00000
    127       2.4324      0.00000
    128       2.5170      0.00000
    129       2.7209      0.00000
    130       2.7577      0.00000
    131       2.7791      0.00000
    132       2.8271      0.00000
    133       2.8552      0.00000
    134       2.9712      0.00000
    135       3.1020      0.00000
    136       3.2859      0.00000
    137       3.3547      0.00000
    138       3.6294      0.00000
    139       3.7086      0.00000
    140       3.7330      0.00000
    141       3.7648      0.00000
    142       3.8447      0.00000
    143       3.9101      0.00000
    144       3.9321      0.00000
    145       4.0130      0.00000
    146       4.1903      0.00000
    147       4.3010      0.00000
    148       4.4940      0.00000
    149       4.5763      0.00000
    150       4.5983      0.00000
    151       4.6329      0.00000
    152       4.6795      0.00000
    153       4.9428      0.00000
    154       5.0779      0.00000
    155       5.4474      0.00000
    156       5.5933      0.00000
    157       5.8702      0.00000
    158       6.1049      0.00000
    159       6.5974      0.00000
    160       6.9897      0.00000

 k-point     2 :      -0.2500    0.2500    0.2500
  band No.  band energies     occupation 
      1     -36.2181      1.00000
      2     -36.2015      1.00000
      3     -36.0912      1.00000
      4     -36.0861      1.00000
      5     -36.0306      1.00000
      6     -35.9359      1.00000
      7     -35.2376      1.00000
      8     -35.1506      1.00000
      9     -34.9468      1.00000
     10     -34.6847      1.00000
     11     -34.4279      1.00000
     12     -34.4276      1.00000
     13     -34.3862      1.00000
     14     -34.3849      1.00000
     15     -34.2330      1.00000
     16     -34.2022      1.00000
     17     -34.1881      1.00000
     18     -34.1381      1.00000
     19     -34.1288      1.00000
     20     -34.0459      1.00000
     21     -33.8000      1.00000
     22     -33.7882      1.00000
     23     -33.5993      1.00000
     24     -33.5493      1.00000
     25     -24.0766      1.00000
     26     -23.8747      1.00000
     27     -23.8004      1.00000
     28     -23.6396      1.00000
     29     -23.5611      1.00000
     30     -23.5406      1.00000
     31     -23.3266      1.00000
     32     -23.2694      1.00000
     33     -23.2083      1.00000
     34     -23.1598      1.00000
     35     -22.9164      1.00000
     36     -22.3526      1.00000
     37     -22.1324      1.00000
     38     -21.8442      1.00000
     39     -21.6712      1.00000
     40     -21.5131      1.00000
     41     -17.7059      1.00000
     42     -16.6928      1.00000
     43     -16.3765      1.00000
     44     -16.2141      1.00000
     45     -16.0204      1.00000
     46     -15.8615      1.00000
     47     -15.2956      1.00000
     48     -14.7886      1.00000
     49      -7.5270      1.00000
     50      -7.4531      1.00000
     51      -7.2708      1.00000
     52      -7.1251      1.00000
     53      -6.7744      1.00000
     54      -6.7409      1.00000
     55      -6.4811      1.00000
     56      -6.3427      1.00000
     57      -6.1455      1.00000
     58      -6.0938      1.00000
     59      -6.0278      1.00000
     60      -5.8786      1.00000
     61      -5.8726      1.00000
     62      -5.8049      1.00000
     63      -5.7935      1.00000
     64      -5.7556      1.00000
     65      -5.5585      1.00000
     66      -5.3694      1.00000
     67      -5.3240      1.00000
     68      -5.2609      1.00000
     69      -5.2071      1.00000
     70      -5.1697      1.00000
     71      -5.1625      1.00000
     72      -5.1195      1.00000
     73      -5.0160      1.00000
     74      -4.9829      1.00000
     75      -4.9482      1.00000
     76      -4.9040      1.00000
     77      -4.6997      1.00000
     78      -4.6310      1.00000
     79      -4.5992      1.00000
     80      -4.5477      1.00000
     81      -4.4675      1.00000
     82      -4.3335      1.00000
     83      -4.2582      1.00000
     84      -4.1742      1.00000
     85      -4.1212      1.00000
     86      -4.0852      1.00000
     87      -3.9960      1.00000
     88      -3.9669      1.00000
     89      -3.6757      1.00000
     90      -3.5142      1.00000
     91      -3.4837      1.00000
     92      -3.4420      1.00000
     93      -3.3605      1.00000
     94      -3.3194      1.00000
     95      -3.2887      1.00000
     96      -3.1635      1.00000
     97      -3.0581      1.00000
     98      -3.0376      1.00000
     99      -2.9392      1.00000
    100      -2.9063      1.00000
    101      -2.8934      1.00000
    102      -2.8778      1.00000
    103      -2.8019      1.00000
    104      -2.7175      1.00000
    105      -2.4027      1.00000
    106      -2.2871      1.00000
    107      -2.2823      1.00000
    108      -2.0784      1.00000
    109      -1.9819      1.00000
    110      -1.8472      1.00000
    111      -1.8308      1.00000
    112      -1.7490      1.00000
    113      -1.6355      1.00000
    114      -1.0703      1.00000
    115      -1.0015      1.00000
    116      -0.5650      1.00000
    117      -0.4281      1.00000
    118      -0.2562      1.00000
    119      -0.1120      1.00000
    120      -0.0237      1.00000
    121       1.3386      0.00000
    122       1.3666      0.00000
    123       1.5365      0.00000
    124       1.8251      0.00000
    125       2.3912      0.00000
    126       2.4123      0.00000
    127       2.4313      0.00000
    128       2.5123      0.00000
    129       2.7235      0.00000
    130       2.7615      0.00000
    131       2.7769      0.00000
    132       2.8268      0.00000
    133       2.8455      0.00000
    134       2.9667      0.00000
    135       3.0995      0.00000
    136       3.2891      0.00000
    137       3.3537      0.00000
    138       3.6413      0.00000
    139       3.7137      0.00000
    140       3.7303      0.00000
    141       3.7889      0.00000
    142       3.8180      0.00000
    143       3.9142      0.00000
    144       3.9701      0.00000
    145       4.0111      0.00000
    146       4.1718      0.00000
    147       4.2743      0.00000
    148       4.4527      0.00000
    149       4.5853      0.00000
    150       4.6217      0.00000
    151       4.6624      0.00000
    152       4.6858      0.00000
    153       4.9103      0.00000
    154       5.0821      0.00000
    155       5.4440      0.00000
    156       5.6042      0.00000
    157       5.8772      0.00000
    158       6.0969      0.00000
    159       6.5976      0.00000
    160       6.9821      0.00000

 k-point     3 :       0.2500   -0.2500    0.2500
  band No.  band energies     occupation 
      1     -36.2181      1.00000
      2     -36.2015      1.00000
      3     -36.0912      1.00000
      4     -36.0861      1.00000
      5     -36.0306      1.00000
      6     -35.9359      1.00000
      7     -35.2376      1.00000
      8     -35.1506      1.00000
      9     -34.9468      1.00000
     10     -34.6847      1.00000
     11     -34.4279      1.00000
     12     -34.4276      1.00000
     13     -34.3862      1.00000
     14     -34.3849      1.00000
     15     -34.2330      1.00000
     16     -34.2022      1.00000
     17     -34.1881      1.00000
     18     -34.1381      1.00000
     19     -34.1288      1.00000
     20     -34.0459      1.00000
     21     -33.8000      1.00000
     22     -33.7882      1.00000
     23     -33.5993      1.00000
     24     -33.5493      1.00000
     25     -24.0766      1.00000
     26     -23.8747      1.00000
     27     -23.8004      1.00000
     28     -23.6396      1.00000
     29     -23.5611      1.00000
     30     -23.5406      1.00000
     31     -23.3266      1.00000
     32     -23.2694      1.00000
     33     -23.2083      1.00000
     34     -23.1598      1.00000
     35     -22.9164      1.00000
     36     -22.3526      1.00000
     37     -22.1324      1.00000
     38     -21.8444      1.00000
     39     -21.6711      1.00000
     40     -21.5132      1.00000
     41     -17.7059      1.00000
     42     -16.6928      1.00000
     43     -16.3769      1.00000
     44     -16.2128      1.00000
     45     -16.0219      1.00000
     46     -15.8608      1.00000
     47     -15.2957      1.00000
     48     -14.7886      1.00000
     49      -7.5271      1.00000
     50      -7.4531      1.00000
     51      -7.2708      1.00000
     52      -7.1249      1.00000
     53      -6.7745      1.00000
     54      -6.7409      1.00000
     55      -6.4810      1.00000
     56      -6.3428      1.00000
     57      -6.1442      1.00000
     58      -6.0947      1.00000
     59      -6.0286      1.00000
     60      -5.8756      1.00000
     61      -5.8721      1.00000
     62      -5.8033      1.00000
     63      -5.7982      1.00000
     64      -5.7559      1.00000
     65      -5.5571      1.00000
     66      -5.3663      1.00000
     67      -5.3360      1.00000
     68      -5.2561      1.00000
     69      -5.2157      1.00000
     70      -5.1837      1.00000
     71      -5.1325      1.00000
     72      -5.1215      1.00000
     73      -5.0144      1.00000
     74      -4.9931      1.00000
     75      -4.9356      1.00000
     76      -4.9119      1.00000
     77      -4.6991      1.00000
     78      -4.6287      1.00000
     79      -4.6012      1.00000
     80      -4.5487      1.00000
     81      -4.4710      1.00000
     82      -4.3329      1.00000
     83      -4.2488      1.00000
     84      -4.1739      1.00000
     85      -4.1208      1.00000
     86      -4.0765      1.00000
     87      -3.9970      1.00000
     88      -3.9652      1.00000
     89      -3.7064      1.00000
     90      -3.5160      1.00000
     91      -3.4834      1.00000
     92      -3.4405      1.00000
     93      -3.3508      1.00000
     94      -3.3079      1.00000
     95      -3.2770      1.00000
     96      -3.2028      1.00000
     97      -3.0506      1.00000
     98      -3.0301      1.00000
     99      -2.9456      1.00000
    100      -2.9001      1.00000
    101      -2.8745      1.00000
    102      -2.8484      1.00000
    103      -2.8091      1.00000
    104      -2.7056      1.00000
    105      -2.4912      1.00000
    106      -2.2895      1.00000
    107      -2.2826      1.00000
    108      -2.0826      1.00000
    109      -1.9767      1.00000
    110      -1.8617      1.00000
    111      -1.7539      1.00000
    112      -1.7346      1.00000
    113      -1.6399      1.00000
    114      -1.0943      1.00000
    115      -1.0021      1.00000
    116      -0.5776      1.00000
    117      -0.4255      1.00000
    118      -0.2548      1.00000
    119      -0.1094      1.00000
    120      -0.0236      1.00000
    121       1.3384      0.00000
    122       1.3666      0.00000
    123       1.5362      0.00000
    124       1.8252      0.00000
    125       2.3889      0.00000
    126       2.4138      0.00000
    127       2.4324      0.00000
    128       2.5170      0.00000
    129       2.7210      0.00000
    130       2.7577      0.00000
    131       2.7791      0.00000
    132       2.8271      0.00000
    133       2.8552      0.00000
    134       2.9712      0.00000
    135       3.1024      0.00000
    136       3.2851      0.00000
    137       3.3545      0.00000
    138       3.6294      0.00000
    139       3.7087      0.00000
    140       3.7331      0.00000
    141       3.7647      0.00000
    142       3.8446      0.00000
    143       3.9100      0.00000
    144       3.9321      0.00000
    145       4.0128      0.00000
    146       4.1907      0.00000
    147       4.3010      0.00000
    148       4.4942      0.00000
    149       4.5767      0.00000
    150       4.5981      0.00000
    151       4.6331      0.00000
    152       4.6795      0.00000
    153       4.9427      0.00000
    154       5.0779      0.00000
    155       5.4474      0.00000
    156       5.5932      0.00000
    157       5.8702      0.00000
    158       6.1048      0.00000
    159       6.5973      0.00000
    160       6.9897      0.00000

 k-point     4 :      -0.2500   -0.2500    0.2500
  band No.  band energies     occupation 
      1     -36.2181      1.00000
      2     -36.2015      1.00000
      3     -36.0912      1.00000
      4     -36.0861      1.00000
      5     -36.0306      1.00000
      6     -35.9359      1.00000
      7     -35.2376      1.00000
      8     -35.1506      1.00000
      9     -34.9468      1.00000
     10     -34.6847      1.00000
     11     -34.4279      1.00000
     12     -34.4276      1.00000
     13     -34.3862      1.00000
     14     -34.3849      1.00000
     15     -34.2330      1.00000
     16     -34.2022      1.00000
     17     -34.1881      1.00000
     18     -34.1381      1.00000
     19     -34.1288      1.00000
     20     -34.0459      1.00000
     21     -33.8000      1.00000
     22     -33.7882      1.00000
     23     -33.5993      1.00000
     24     -33.5493      1.00000
     25     -24.0766      1.00000
     26     -23.8747      1.00000
     27     -23.8004      1.00000
     28     -23.6396      1.00000
     29     -23.5611      1.00000
     30     -23.5406      1.00000
     31     -23.3266      1.00000
     32     -23.2694      1.00000
     33     -23.2083      1.00000
     34     -23.1598      1.00000
     35     -22.9164      1.00000
     36     -22.3526      1.00000
     37     -22.1324      1.00000
     38     -21.8442      1.00000
     39     -21.6712      1.00000
     40     -21.5131      1.00000
     41     -17.7059      1.00000
     42     -16.6928      1.00000
     43     -16.3765      1.00000
     44     -16.2141      1.00000
     45     -16.0204      1.00000
     46     -15.8615      1.00000
     47     -15.2956      1.00000
     48     -14.7886      1.00000
     49      -7.5270      1.00000
     50      -7.4531      1.00000
     51      -7.2708      1.00000
     52      -7.1251      1.00000
     53      -6.7744      1.00000
     54      -6.7409      1.00000
     55      -6.4811      1.00000
     56      -6.3427      1.00000
     57      -6.1455      1.00000
     58      -6.0938      1.00000
     59      -6.0278      1.00000
     60      -5.8786      1.00000
     61      -5.8726      1.00000
     62      -5.8049      1.00000
     63      -5.7935      1.00000
     64      -5.7556      1.00000
     65      -5.5585      1.00000
     66      -5.3694      1.00000
     67      -5.3240      1.00000
     68      -5.2608      1.00000
     69      -5.2070      1.00000
     70      -5.1697      1.00000
     71      -5.1625      1.00000
     72      -5.1195      1.00000
     73      -5.0160      1.00000
     74      -4.9829      1.00000
     75      -4.9483      1.00000
     76      -4.9041      1.00000
     77      -4.6999      1.00000
     78      -4.6310      1.00000
     79      -4.5991      1.00000
     80      -4.5477      1.00000
     81      -4.4675      1.00000
     82      -4.3334      1.00000
     83      -4.2582      1.00000
     84      -4.1742      1.00000
     85      -4.1212      1.00000
     86      -4.0851      1.00000
     87      -3.9960      1.00000
     88      -3.9669      1.00000
     89      -3.6757      1.00000
     90      -3.5142      1.00000
     91      -3.4837      1.00000
     92      -3.4419      1.00000
     93      -3.3605      1.00000
     94      -3.3194      1.00000
     95      -3.2886      1.00000
     96      -3.1636      1.00000
     97      -3.0581      1.00000
     98      -3.0378      1.00000
     99      -2.9393      1.00000
    100      -2.9061      1.00000
    101      -2.8936      1.00000
    102      -2.8777      1.00000
    103      -2.8017      1.00000
    104      -2.7175      1.00000
    105      -2.4026      1.00000
    106      -2.2871      1.00000
    107      -2.2823      1.00000
    108      -2.0784      1.00000
    109      -1.9819      1.00000
    110      -1.8472      1.00000
    111      -1.8309      1.00000
    112      -1.7490      1.00000
    113      -1.6355      1.00000
    114      -1.0704      1.00000
    115      -1.0015      1.00000
    116      -0.5650      1.00000
    117      -0.4282      1.00000
    118      -0.2562      1.00000
    119      -0.1119      1.00000
    120      -0.0237      1.00000
    121       1.3386      0.00000
    122       1.3666      0.00000
    123       1.5365      0.00000
    124       1.8250      0.00000
    125       2.3912      0.00000
    126       2.4123      0.00000
    127       2.4313      0.00000
    128       2.5123      0.00000
    129       2.7236      0.00000
    130       2.7615      0.00000
    131       2.7769      0.00000
    132       2.8268      0.00000
    133       2.8455      0.00000
    134       2.9667      0.00000
    135       3.0991      0.00000
    136       3.2898      0.00000
    137       3.3536      0.00000
    138       3.6413      0.00000
    139       3.7136      0.00000
    140       3.7301      0.00000
    141       3.7887      0.00000
    142       3.8179      0.00000
    143       3.9142      0.00000
    144       3.9702      0.00000
    145       4.0109      0.00000
    146       4.1719      0.00000
    147       4.2744      0.00000
    148       4.4527      0.00000
    149       4.5852      0.00000
    150       4.6219      0.00000
    151       4.6626      0.00000
    152       4.6859      0.00000
    153       4.9103      0.00000
    154       5.0820      0.00000
    155       5.4440      0.00000
    156       5.6042      0.00000
    157       5.8772      0.00000
    158       6.0969      0.00000
    159       6.5976      0.00000
    160       6.9821      0.00000

 spin component 2

 k-point     1 :       0.2500    0.2500    0.2500
  band No.  band energies     occupation 
      1     -36.2181      1.00000
      2     -36.2015      1.00000
      3     -36.0912      1.00000
      4     -36.0861      1.00000
      5     -36.0306      1.00000
      6     -35.9359      1.00000
      7     -35.2376      1.00000
      8     -35.1506      1.00000
      9     -34.9468      1.00000
     10     -34.6847      1.00000
     11     -34.4279      1.00000
     12     -34.4276      1.00000
     13     -34.3862      1.00000
     14     -34.3849      1.00000
     15     -34.2330      1.00000
     16     -34.2022      1.00000
     17     -34.1881      1.00000
     18     -34.1381      1.00000
     19     -34.1288      1.00000
     20     -34.0459      1.00000
     21     -33.8000      1.00000
     22     -33.7882      1.00000
     23     -33.5993      1.00000
     24     -33.5493      1.00000
     25     -24.0766      1.00000
     26     -23.8747      1.00000
     27     -23.8004      1.00000
     28     -23.6396      1.00000
     29     -23.5611      1.00000
     30     -23.5406      1.00000
     31     -23.3266      1.00000
     32     -23.2694      1.00000
     33     -23.2083      1.00000
     34     -23.1598      1.00000
     35     -22.9164      1.00000
     36     -22.3526      1.00000
     37     -22.1324      1.00000
     38     -21.8444      1.00000
     39     -21.6711      1.00000
     40     -21.5132      1.00000
     41     -17.7059      1.00000
     42     -16.6928      1.00000
     43     -16.3769      1.00000
     44     -16.2128      1.00000
     45     -16.0219      1.00000
     46     -15.8608      1.00000
     47     -15.2957      1.00000
     48     -14.7886      1.00000
     49      -7.5271      1.00000
     50      -7.4531      1.00000
     51      -7.2708      1.00000
     52      -7.1249      1.00000
     53      -6.7745      1.00000
     54      -6.7409      1.00000
     55      -6.4810      1.00000
     56      -6.3428      1.00000
     57      -6.1442      1.00000
     58      -6.0947      1.00000
     59      -6.0286      1.00000
     60      -5.8756      1.00000
     61      -5.8721      1.00000
     62      -5.8033      1.00000
     63      -5.7982      1.00000
     64      -5.7559      1.00000
     65      -5.5571      1.00000
     66      -5.3663      1.00000
     67      -5.3360      1.00000
     68      -5.2561      1.00000
     69      -5.2157      1.00000
     70      -5.1837      1.00000
     71      -5.1325      1.00000
     72      -5.1215      1.00000
     73      -5.0144      1.00000
     74      -4.9930      1.00000
     75      -4.9356      1.00000
     76      -4.9117      1.00000
     77      -4.6992      1.00000
     78      -4.6286      1.00000
     79      -4.6012      1.00000
     80      -4.5487      1.00000
     81      -4.4710      1.00000
     82      -4.3330      1.00000
     83      -4.2488      1.00000
     84      -4.1739      1.00000
     85      -4.1208      1.00000
     86      -4.0765      1.00000
     87      -3.9970      1.00000
     88      -3.9652      1.00000
     89      -3.7064      1.00000
     90      -3.5159      1.00000
     91      -3.4835      1.00000
     92      -3.4405      1.00000
     93      -3.3508      1.00000
     94      -3.3080      1.00000
     95      -3.2770      1.00000
     96      -3.2027      1.00000
     97      -3.0506      1.00000
     98      -3.0299      1.00000
     99      -2.9457      1.00000
    100      -2.9002      1.00000
    101      -2.8745      1.00000
    102      -2.8482      1.00000
    103      -2.8091      1.00000
    104      -2.7057      1.00000
    105      -2.4911      1.00000
    106      -2.2895      1.00000
    107      -2.2826      1.00000
    108      -2.0826      1.00000
    109      -1.9767      1.00000
    110      -1.8617      1.00000
    111      -1.7538      1.00000
    112      -1.7346      1.00000
    113      -1.6399      1.00000
    114      -1.0943      1.00000
    115      -1.0021      1.00000
    116      -0.5776      1.00000
    117      -0.4255      1.00000
    118      -0.2549      1.00000
    119      -0.1093      1.00000
    120      -0.0236      1.00000
    121       1.3384      0.00000
    122       1.3666      0.00000
    123       1.5362      0.00000
    124       1.8251      0.00000
    125       2.3889      0.00000
    126       2.4138      0.00000
    127       2.4324      0.00000
    128       2.5170      0.00000
    129       2.7209      0.00000
    130       2.7577      0.00000
    131       2.7791      0.00000
    132       2.8271      0.00000
    133       2.8552      0.00000
    134       2.9712      0.00000
    135       3.1020      0.00000
    136       3.2859      0.00000
    137       3.3547      0.00000
    138       3.6294      0.00000
    139       3.7086      0.00000
    140       3.7330      0.00000
    141       3.7648      0.00000
    142       3.8447      0.00000
    143       3.9101      0.00000
    144       3.9321      0.00000
    145       4.0130      0.00000
    146       4.1903      0.00000
    147       4.3010      0.00000
    148       4.4940      0.00000
    149       4.5763      0.00000
    150       4.5983      0.00000
    151       4.6329      0.00000
    152       4.6795      0.00000
    153       4.9428      0.00000
    154       5.0779      0.00000
    155       5.4474      0.00000
    156       5.5933      0.00000
    157       5.8702      0.00000
    158       6.1049      0.00000
    159       6.5974      0.00000
    160       6.9897      0.00000

 k-point     2 :      -0.2500    0.2500    0.2500
  band No.  band energies     occupation 
      1     -36.2181      1.00000
      2     -36.2015      1.00000
      3     -36.0912      1.00000
      4     -36.0861      1.00000
      5     -36.0306      1.00000
      6     -35.9359      1.00000
      7     -35.2376      1.00000
      8     -35.1506      1.00000
      9     -34.9468      1.00000
     10     -34.6847      1.00000
     11     -34.4279      1.00000
     12     -34.4276      1.00000
     13     -34.3862      1.00000
     14     -34.3849      1.00000
     15     -34.2330      1.00000
     16     -34.2022      1.00000
     17     -34.1881      1.00000
     18     -34.1381      1.00000
     19     -34.1288      1.00000
     20     -34.0459      1.00000
     21     -33.8000      1.00000
     22     -33.7882      1.00000
     23     -33.5993      1.00000
     24     -33.5493      1.00000
     25     -24.0766      1.00000
     26     -23.8747      1.00000
     27     -23.8004      1.00000
     28     -23.6396      1.00000
     29     -23.5611      1.00000
     30     -23.5406      1.00000
     31     -23.3266      1.00000
     32     -23.2694      1.00000
     33     -23.2083      1.00000
     34     -23.1598      1.00000
     35     -22.9164      1.00000
     36     -22.3526      1.00000
     37     -22.1324      1.00000
     38     -21.8442      1.00000
     39     -21.6712      1.00000
     40     -21.5131      1.00000
     41     -17.7059      1.00000
     42     -16.6928      1.00000
     43     -16.3765      1.00000
     44     -16.2141      1.00000
     45     -16.0204      1.00000
     46     -15.8615      1.00000
     47     -15.2956      1.00000
     48     -14.7886      1.00000
     49      -7.5270      1.00000
     50      -7.4531      1.00000
     51      -7.2708      1.00000
     52      -7.1251      1.00000
     53      -6.7744      1.00000
     54      -6.7409      1.00000
     55      -6.4811      1.00000
     56      -6.3427      1.00000
     57      -6.1455      1.00000
     58      -6.0938      1.00000
     59      -6.0278      1.00000
     60      -5.8786      1.00000
     61      -5.8726      1.00000
     62      -5.8049      1.00000
     63      -5.7935      1.00000
     64      -5.7556      1.00000
     65      -5.5585      1.00000
     66      -5.3694      1.00000
     67      -5.3240      1.00000
     68      -5.2609      1.00000
     69      -5.2071      1.00000
     70      -5.1697      1.00000
     71      -5.1625      1.00000
     72      -5.1195      1.00000
     73      -5.0160      1.00000
     74      -4.9829      1.00000
     75      -4.9482      1.00000
     76      -4.9040      1.00000
     77      -4.6997      1.00000
     78      -4.6310      1.00000
     79      -4.5992      1.00000
     80      -4.5477      1.00000
     81      -4.4675      1.00000
     82      -4.3335      1.00000
     83      -4.2582      1.00000
     84      -4.1742      1.00000
     85      -4.1212      1.00000
     86      -4.0852      1.00000
     87      -3.9960      1.00000
     88      -3.9669      1.00000
     89      -3.6757      1.00000
     90      -3.5142      1.00000
     91      -3.4837      1.00000
     92      -3.4420      1.00000
     93      -3.3605      1.00000
     94      -3.3194      1.00000
     95      -3.2887      1.00000
     96      -3.1635      1.00000
     97      -3.0581      1.00000
     98      -3.0376      1.00000
     99      -2.9392      1.00000
    100      -2.9063      1.00000
    101      -2.8934      1.00000
    102      -2.8778      1.00000
    103      -2.8019      1.00000
    104      -2.7175      1.00000
    105      -2.4027      1.00000
    106      -2.2871      1.00000
    107      -2.2823      1.00000
    108      -2.0784      1.00000
    109      -1.9819      1.00000
    110      -1.8472      1.00000
    111      -1.8308      1.00000
    112      -1.7490      1.00000
    113      -1.6355      1.00000
    114      -1.0703      1.00000
    115      -1.0015      1.00000
    116      -0.5650      1.00000
    117      -0.4281      1.00000
    118      -0.2562      1.00000
    119      -0.1120      1.00000
    120      -0.0237      1.00000
    121       1.3386      0.00000
    122       1.3666      0.00000
    123       1.5365      0.00000
    124       1.8251      0.00000
    125       2.3912      0.00000
    126       2.4123      0.00000
    127       2.4313      0.00000
    128       2.5123      0.00000
    129       2.7235      0.00000
    130       2.7615      0.00000
    131       2.7769      0.00000
    132       2.8268      0.00000
    133       2.8455      0.00000
    134       2.9667      0.00000
    135       3.0995      0.00000
    136       3.2891      0.00000
    137       3.3537      0.00000
    138       3.6413      0.00000
    139       3.7137      0.00000
    140       3.7303      0.00000
    141       3.7889      0.00000
    142       3.8180      0.00000
    143       3.9142      0.00000
    144       3.9701      0.00000
    145       4.0111      0.00000
    146       4.1718      0.00000
    147       4.2743      0.00000
    148       4.4527      0.00000
    149       4.5853      0.00000
    150       4.6217      0.00000
    151       4.6624      0.00000
    152       4.6858      0.00000
    153       4.9103      0.00000
    154       5.0821      0.00000
    155       5.4440      0.00000
    156       5.6042      0.00000
    157       5.8772      0.00000
    158       6.0969      0.00000
    159       6.5976      0.00000
    160       6.9821      0.00000

 k-point     3 :       0.2500   -0.2500    0.2500
  band No.  band energies     occupation 
      1     -36.2181      1.00000
      2     -36.2015      1.00000
      3     -36.0912      1.00000
      4     -36.0861      1.00000
      5     -36.0306      1.00000
      6     -35.9359      1.00000
      7     -35.2376      1.00000
      8     -35.1506      1.00000
      9     -34.9468      1.00000
     10     -34.6847      1.00000
     11     -34.4279      1.00000
     12     -34.4276      1.00000
     13     -34.3862      1.00000
     14     -34.3849      1.00000
     15     -34.2330      1.00000
     16     -34.2022      1.00000
     17     -34.1881      1.00000
     18     -34.1381      1.00000
     19     -34.1288      1.00000
     20     -34.0459      1.00000
     21     -33.8000      1.00000
     22     -33.7882      1.00000
     23     -33.5993      1.00000
     24     -33.5493      1.00000
     25     -24.0766      1.00000
     26     -23.8747      1.00000
     27     -23.8004      1.00000
     28     -23.6396      1.00000
     29     -23.5611      1.00000
     30     -23.5406      1.00000
     31     -23.3266      1.00000
     32     -23.2694      1.00000
     33     -23.2083      1.00000
     34     -23.1598      1.00000
     35     -22.9164      1.00000
     36     -22.3526      1.00000
     37     -22.1324      1.00000
     38     -21.8444      1.00000
     39     -21.6711      1.00000
     40     -21.5132      1.00000
     41     -17.7059      1.00000
     42     -16.6928      1.00000
     43     -16.3769      1.00000
     44     -16.2128      1.00000
     45     -16.0219      1.00000
     46     -15.8608      1.00000
     47     -15.2957      1.00000
     48     -14.7886      1.00000
     49      -7.5271      1.00000
     50      -7.4531      1.00000
     51      -7.2708      1.00000
     52      -7.1249      1.00000
     53      -6.7745      1.00000
     54      -6.7409      1.00000
     55      -6.4810      1.00000
     56      -6.3428      1.00000
     57      -6.1442      1.00000
     58      -6.0947      1.00000
     59      -6.0286      1.00000
     60      -5.8756      1.00000
     61      -5.8721      1.00000
     62      -5.8033      1.00000
     63      -5.7982      1.00000
     64      -5.7559      1.00000
     65      -5.5571      1.00000
     66      -5.3663      1.00000
     67      -5.3360      1.00000
     68      -5.2561      1.00000
     69      -5.2157      1.00000
     70      -5.1837      1.00000
     71      -5.1325      1.00000
     72      -5.1215      1.00000
     73      -5.0144      1.00000
     74      -4.9931      1.00000
     75      -4.9356      1.00000
     76      -4.9119      1.00000
     77      -4.6991      1.00000
     78      -4.6287      1.00000
     79      -4.6012      1.00000
     80      -4.5487      1.00000
     81      -4.4710      1.00000
     82      -4.3329      1.00000
     83      -4.2488      1.00000
     84      -4.1739      1.00000
     85      -4.1208      1.00000
     86      -4.0765      1.00000
     87      -3.9970      1.00000
     88      -3.9652      1.00000
     89      -3.7064      1.00000
     90      -3.5160      1.00000
     91      -3.4834      1.00000
     92      -3.4405      1.00000
     93      -3.3508      1.00000
     94      -3.3079      1.00000
     95      -3.2770      1.00000
     96      -3.2028      1.00000
     97      -3.0506      1.00000
     98      -3.0301      1.00000
     99      -2.9456      1.00000
    100      -2.9001      1.00000
    101      -2.8745      1.00000
    102      -2.8484      1.00000
    103      -2.8091      1.00000
    104      -2.7056      1.00000
    105      -2.4912      1.00000
    106      -2.2895      1.00000
    107      -2.2826      1.00000
    108      -2.0826      1.00000
    109      -1.9767      1.00000
    110      -1.8617      1.00000
    111      -1.7539      1.00000
    112      -1.7346      1.00000
    113      -1.6399      1.00000
    114      -1.0943      1.00000
    115      -1.0021      1.00000
    116      -0.5776      1.00000
    117      -0.4255      1.00000
    118      -0.2548      1.00000
    119      -0.1094      1.00000
    120      -0.0236      1.00000
    121       1.3384      0.00000
    122       1.3666      0.00000
    123       1.5362      0.00000
    124       1.8252      0.00000
    125       2.3889      0.00000
    126       2.4138      0.00000
    127       2.4324      0.00000
    128       2.5170      0.00000
    129       2.7210      0.00000
    130       2.7577      0.00000
    131       2.7791      0.00000
    132       2.8271      0.00000
    133       2.8552      0.00000
    134       2.9712      0.00000
    135       3.1024      0.00000
    136       3.2851      0.00000
    137       3.3545      0.00000
    138       3.6294      0.00000
    139       3.7087      0.00000
    140       3.7331      0.00000
    141       3.7647      0.00000
    142       3.8446      0.00000
    143       3.9100      0.00000
    144       3.9321      0.00000
    145       4.0128      0.00000
    146       4.1907      0.00000
    147       4.3010      0.00000
    148       4.4942      0.00000
    149       4.5767      0.00000
    150       4.5981      0.00000
    151       4.6331      0.00000
    152       4.6795      0.00000
    153       4.9427      0.00000
    154       5.0779      0.00000
    155       5.4474      0.00000
    156       5.5932      0.00000
    157       5.8702      0.00000
    158       6.1048      0.00000
    159       6.5973      0.00000
    160       6.9897      0.00000

 k-point     4 :      -0.2500   -0.2500    0.2500
  band No.  band energies     occupation 
      1     -36.2181      1.00000
      2     -36.2015      1.00000
      3     -36.0912      1.00000
[...]
 -0.000   0.000   0.000   0.000  -0.000   0.000   0.000   0.000   0.000  -0.000  -0.000   0.000  -0.000   0.000  -0.000   0.000
  0.000  -0.000   0.000  -0.000   0.000   0.000  -0.000  -0.000  -0.000  -0.000  -0.000  -0.000   0.000   0.000   0.000  -0.000
  0.000  -0.000  -0.000   0.000  -0.000  -0.000  -0.000   0.000  -0.000   0.000  -0.000   0.000  -0.000   0.000  -0.000   0.000
 -0.000   0.000  -0.000  -0.000  -0.000   0.000  -0.000  -0.000  -0.000  -0.000   0.000  -0.000   0.000   0.000   0.000  -0.000
 -0.000  -0.000   0.000   0.000  -0.000  -0.000  -0.000  -0.000  -0.000   0.000   0.000   0.000   0.000   0.000  -0.000  -0.000
 -0.000  -0.000  -0.000  -0.000   0.000  -0.000  -0.000  -0.000   0.000  -0.000   0.000  -0.000   0.000  -0.000   0.000  -0.000
 -0.000   0.000   0.000   0.000  -0.000  -0.000   0.000   0.000   0.000   0.000  -0.000   0.000  -0.000  -0.000  -0.000   0.000
 -0.000  -0.000  -0.000  -0.000   0.000  -0.000   0.000  -0.000  -0.000  -0.000   0.000  -0.000   0.000   0.000   0.000  -0.000
 -0.000  -0.000   0.000   0.000   0.000  -0.000   0.000  -0.000   0.000   0.000  -0.000  -0.000   0.000  -0.000  -0.000   0.000


------------------------ aborting loop because EDIFF is reached ----------------------------------------


 


 total charge     
 
# of ion       s       p       d       tot
------------------------------------------
    1        0.322   6.485   1.751   8.558
    2        0.325   6.494   1.734   8.553
    3        0.316   6.457   1.811   8.584
    4        0.315   6.458   1.821   8.594
    5        0.314   6.477   1.836   8.628
    6        0.295   6.445   1.741   8.481
    7        0.315   6.458   1.800   8.573
    8        0.304   6.425   1.655   8.384
    9        1.567   3.463   0.000   5.030
   10        1.570   3.449   0.000   5.020
   11        1.564   3.409   0.000   4.974
   12        1.564   3.410   0.000   4.974
   13        1.571   3.470   0.000   5.041
   14        1.569   3.475   0.000   5.044
   15        1.575   3.454   0.000   5.028
   16        1.572   3.461   0.000   5.033
   17        1.730   4.389   0.000   6.119
   18        1.732   4.384   0.000   6.117
   19        1.728   4.370   0.000   6.098
   20        1.729   4.370   0.000   6.098
   21        1.730   4.387   0.000   6.118
   22        1.732   4.383   0.000   6.115
   23        1.731   4.390   0.000   6.122
   24        1.732   4.390   0.000   6.121
   25        1.731   4.390   0.000   6.122
   26        1.732   4.390   0.000   6.121
   27        1.731   4.391   0.000   6.122
   28        1.731   4.391   0.000   6.122
   29        1.729   4.376   0.000   6.105
   30        1.728   4.375   0.000   6.104
   31        1.730   4.384   0.000   6.115
   32        1.730   4.376   0.000   6.106
--------------------------------------------------
tot         42.745 149.425  14.151 206.321
 


 magnetization (x)
 
# of ion       s       p       d       tot
------------------------------------------
    1       -0.000   0.000  -0.000  -0.000
    2       -0.000   0.000  -0.000  -0.000
    3       -0.000  -0.000   0.000   0.000
    4       -0.000  -0.000  -0.000  -0.000
    5       -0.000  -0.000   0.000   0.000
    6       -0.000   0.000  -0.000   0.000
    7       -0.000  -0.000   0.000  -0.000
    8       -0.000  -0.000   0.000   0.000
    9       -0.000   0.000   0.000  -0.000
   10        0.000   0.000   0.000   0.000
   11        0.000   0.000   0.000   0.000
   12       -0.000   0.000   0.000  -0.000
   13       -0.000   0.000   0.000   0.000
   14        0.000  -0.000   0.000   0.000
   15        0.000   0.000   0.000   0.000
   16        0.000  -0.000   0.000   0.000
   17        0.000  -0.000   0.000  -0.000
   18        0.000  -0.000   0.000   0.000
   19        0.000  -0.000   0.000   0.000
   20        0.000   0.000   0.000   0.000
   21       -0.000   0.000   0.000  -0.000
   22        0.000  -0.000   0.000   0.000
   23       -0.000  -0.000   0.000  -0.000
   24        0.000   0.000   0.000   0.000
   25       -0.000   0.000   0.000  -0.000
   26        0.000   0.000   0.000   0.000
   27       -0.000  -0.000   0.000  -0.000
   28       -0.000   0.000   0.000   0.000
   29       -0.000   0.000   0.000  -0.000
   30        0.000  -0.000   0.000  -0.000
   31        0.000   0.000   0.000   0.000
   32       -0.000   0.000   0.000  -0.000
--------------------------------------------------
tot          0.000   0.000  -0.000   0.000
 
    CHARGE:  cpu time    0.3899: real time    0.3909
    FORLOC:  cpu time    0.0110: real time    0.0107
    FORNL :  cpu time    2.0887: real time    2.0905
    STRESS:  cpu time    6.5310: real time    6.5243
    FORCOR:  cpu time    0.1290: real time    0.1294
    FORHAR:  cpu time    0.0220: real time    0.0213
    MIXING:  cpu time    0.0010: real time    0.0018
    OFIELD:  cpu time    0.0000: real time    0.0000

  FORCE on cell =-STRESS in cart. coord.  units (eV):
  Direction    XX          YY          ZZ          XY          YZ          ZX
  --------------------------------------------------------------------------------------
  Alpha Z   757.06472   757.06472   757.06472
  Ewald   -4290.06920 -4217.99028 -4250.57557     0.00881    -0.00083     3.09297
  Hartree  2734.09413  2784.33953  2751.31926     0.01235     0.00932     0.61913
  E(xc)   -1232.09504 -1232.03958 -1232.36464     0.00006     0.00011    -0.01326
  Local   -2110.40593 -2233.11506 -2196.20664    -0.01844    -0.00328    -3.96191
  n-local  -969.41570  -969.58820  -964.47665    -0.00110    -0.00173     0.15020
  augment   752.84694   753.69325   762.92404    -0.00129    -0.00250     0.20228
  Kinetic  4358.10372  4357.73890  4372.39513    -0.00012    -0.00064    -0.08925
  Fock        0.00000     0.00000     0.00000     0.00000     0.00000     0.00000
  -------------------------------------------------------------------------------------
  Total       0.12364     0.10328     0.07965     0.00026     0.00045     0.00016
  in kB       0.42830     0.35776     0.27589     0.00091     0.00155     0.00054
  external pressure =        0.35 kB  Pullay stress =        0.00 kB


 VOLUME and BASIS-vectors are now :
 -----------------------------------------------------------------------------
  energy-cutoff  :      700.00
  volume of cell :      462.53
      direct lattice vectors                 reciprocal lattice vectors
     7.781046084  0.000010839 -0.003283712     0.128517447 -0.000000179  0.000055108
     0.000010786  7.737502500  0.000025362    -0.000000180  0.129240669 -0.000000424
    -0.003294251  0.000025178  7.682496692     0.000054932 -0.000000427  0.130166041

  length of vectors
     7.781046777  7.737502500  7.682497398     0.128517459  0.129240669  0.130166053


 FORCES acting on ions
    electron-ion (+dipol)            ewald-force                    non-local-force                 convergence-correction
 -----------------------------------------------------------------------------------------------
   0.103E+02 -.647E-02 0.265E+02   -.102E+02 0.644E-02 -.270E+02   -.743E-01 0.976E-05 0.450E+00   0.147E-03 0.302E-05 -.707E-05
   0.678E+01 -.125E-01 -.315E+02   -.676E+01 0.124E-01 0.321E+02   -.103E-01 0.778E-04 -.635E+00   0.214E-03 -.105E-05 0.287E-03
   0.179E+02 0.664E-02 0.917E+01   -.189E+02 -.664E-02 -.799E+01   0.107E+01 -.583E-05 -.118E+01   0.113E-03 -.302E-05 0.906E-04
   0.147E+02 0.169E-01 -.454E+01   -.152E+02 -.169E-01 0.312E+01   0.523E+00 -.120E-03 0.142E+01   -.128E-03 0.863E-06 -.188E-03
   -.105E+02 -.104E-01 0.359E+02   0.104E+02 0.102E-01 -.354E+02   0.106E+00 0.453E-05 -.428E+00   -.224E-03 -.105E-05 0.984E-04
   -.601E+01 0.320E+00 -.416E+02   0.599E+01 -.319E+00 0.424E+02   0.201E-01 0.326E-02 -.768E+00   -.306E-03 -.847E-04 0.138E-04
   -.265E+02 0.148E-01 0.126E+02   0.277E+02 -.150E-01 -.130E+02   -.119E+01 -.453E-04 0.427E+00   0.620E-04 -.134E-05 0.852E-05
   -.206E+02 0.411E+00 -.123E+02   0.215E+02 -.394E+00 0.134E+02   -.939E+00 -.907E-02 -.107E+01   0.195E-03 0.115E-04 0.142E-04
   0.284E+02 0.468E-02 0.882E+01   -.310E+02 -.445E-02 -.912E+01   0.253E+01 -.229E-03 0.307E+00   -.178E-03 -.932E-06 -.626E-04
   0.732E+02 0.111E+00 -.109E+02   -.790E+02 -.119E+00 0.116E+02   0.577E+01 0.758E-02 -.731E+00   -.881E-03 0.353E-05 -.209E-04
   -.342E+01 -.433E+02 -.727E+01   0.326E+01 0.455E+02 0.688E+01   0.160E+00 -.223E+01 0.392E+00   -.298E-04 0.482E-03 0.377E-04
   -.340E+01 0.419E+02 -.725E+01   0.324E+01 -.440E+02 0.686E+01   0.162E+00 0.209E+01 0.394E+00   -.248E-04 -.384E-03 0.420E-04
   0.536E+01 -.650E-02 0.180E+02   -.553E+01 0.665E-02 -.197E+02   0.166E+00 -.148E-03 0.167E+01   0.569E-04 0.145E-05 -.119E-02
   -.178E+02 0.455E-02 -.193E+02   0.215E+02 -.434E-02 0.211E+02   -.372E+01 -.212E-03 -.185E+01   0.156E-03 -.157E-05 -.405E-04
   -.485E+01 0.497E-01 0.924E+02   0.496E+01 -.550E-01 -.101E+03   -.105E+00 0.478E-02 0.827E+01   -.134E-03 -.141E-04 -.238E-03
   0.571E+01 0.120E+00 0.644E+02   -.751E+01 -.130E+00 -.695E+02   0.179E+01 0.891E-02 0.512E+01   0.104E-03 0.319E-05 -.615E-03
   -.284E+02 -.681E-02 -.891E+01   0.320E+02 0.709E-02 0.138E+02   -.359E+01 -.292E-03 -.488E+01   0.454E-03 0.361E-05 0.930E-04
   -.763E+02 0.543E-01 0.168E+01   0.842E+02 -.622E-01 -.464E+01   -.786E+01 0.738E-02 0.295E+01   -.490E-03 -.628E-05 0.118E-03
   -.741E+01 0.548E-02 0.629E+01   0.734E+01 -.528E-02 -.627E+01   0.625E-01 -.204E-03 -.222E-01   0.604E-04 -.331E-05 0.166E-04
   -.353E+02 0.111E+00 -.735E+01   0.356E+02 -.120E+00 0.782E+01   -.303E+00 0.844E-02 -.474E+00   0.718E-03 -.131E-05 -.415E-04
   0.293E+02 -.743E-02 -.804E+01   -.329E+02 0.771E-02 0.128E+02   0.364E+01 -.285E-03 -.479E+01   -.407E-03 0.309E-05 0.938E-04
   0.771E+02 0.483E-01 0.112E+01   -.851E+02 -.557E-01 -.407E+01   0.807E+01 0.693E-02 0.295E+01   0.583E-03 -.763E-05 0.134E-03
   -.406E+01 -.522E+02 0.518E+01   0.620E+01 0.582E+02 -.450E+01   -.215E+01 -.594E+01 -.680E+00   0.817E-04 0.414E-03 0.591E-04
   -.645E+01 -.547E+02 -.657E+01   0.886E+01 0.609E+02 0.612E+01   -.241E+01 -.619E+01 0.459E+00   0.646E-04 -.778E-03 0.749E-05
   -.406E+01 0.522E+02 0.518E+01   0.620E+01 -.582E+02 -.450E+01   -.215E+01 0.594E+01 -.680E+00   0.807E-04 -.414E-03 0.585E-04
   -.645E+01 0.547E+02 -.657E+01   0.887E+01 -.609E+02 0.612E+01   -.241E+01 0.619E+01 0.459E+00   0.620E-04 0.779E-03 0.797E-05
   0.525E+00 -.359E+02 -.158E+02   -.202E+01 0.394E+02 0.218E+02   0.149E+01 -.349E+01 -.598E+01   -.499E-04 0.748E-04 0.447E-04
   0.526E+00 0.359E+02 -.158E+02   -.202E+01 -.394E+02 0.218E+02   0.149E+01 0.349E+01 -.598E+01   -.488E-04 -.735E-04 0.394E-04
   0.483E+01 -.662E-02 -.358E+01   -.495E+01 0.673E-02 0.332E+01   0.123E+00 -.113E-03 0.250E+00   0.102E-03 0.355E-05 0.900E-03
   -.116E+02 0.679E-02 0.484E+01   0.155E+02 -.661E-02 -.457E+01   -.392E+01 -.176E-03 -.263E+00   0.149E-03 -.230E-05 0.109E-03
   -.526E+01 0.592E-01 -.437E+02   0.536E+01 -.668E-01 0.446E+02   -.865E-01 0.676E-02 -.857E+00   -.183E-03 -.595E-05 0.758E-04
   0.517E+01 0.120E+00 -.353E+02   -.748E+01 -.130E+00 0.355E+02   0.231E+01 0.919E-02 -.224E+00   0.901E-04 -.163E-05 0.534E-03
 -----------------------------------------------------------------------------------------------
   0.143E+01 0.875E-01 0.597E+01   -.355E-13 -.564E-13 -.121E-12   -.143E+01 -.876E-01 -.597E+01   0.406E-03 -.238E-05 0.484E-03
 
 
 POSITION                                       TOTAL-FORCE (eV/Angst)
 -----------------------------------------------------------------------------------
      0.00380      7.73753      7.56976         0.002893     -0.000004     -0.003034
      0.00928      7.73750      3.91865         0.004009     -0.000086     -0.003056
      7.65902      3.86876      0.11774        -0.003638     -0.000002      0.003512
      7.63721      3.86875      3.76328         0.002257     -0.000148      0.001533
      3.88911      7.73750      7.54800         0.002530     -0.000188     -0.000661
      3.89541      0.00068      3.85090         0.002506      0.004698      0.000017
      3.96224      3.86875      7.55550        -0.005162     -0.000204      0.003326
      3.92619      3.86985      3.88759        -0.003266      0.007368      0.002790
      5.85146      3.86878      7.67139        -0.005755      0.000004      0.003822
      5.87438      3.86873      3.85242        -0.005627     -0.000343      0.003301
      3.89327      1.88230      3.83091         0.001314     -0.002418      0.002349
      3.89328      5.85432      3.83093         0.001099     -0.003580      0.002397
     -0.00214      7.73752      5.77057         0.003732      0.000007     -0.002691
      0.03086      3.86876      1.91681        -0.004004     -0.000001      0.000604
      3.89875      7.73746      5.82221         0.006689     -0.000469     -0.001282
      3.85428      3.86870      5.79940        -0.003959     -0.000526      0.002587
      1.91867      7.73750      0.05932         0.003436     -0.000001     -0.005064
      1.88190      7.73744      3.77255         0.004419     -0.000508     -0.006685
      1.92038      3.86878      7.67366        -0.003566      0.000000      0.002438
      1.89181      3.86869      3.86108        -0.001608     -0.000639      0.003301
      5.87245      7.73751      0.05765         0.004902      0.000004     -0.003741
      5.91597      7.73746      3.76935         0.004318     -0.000529     -0.007111
      0.03150      1.88704      0.00964        -0.001277     -0.000180     -0.000986
      0.03146      1.88655      3.84072         0.001068     -0.000511      0.001525
      0.03150      5.85046      0.00965        -0.001275      0.000189     -0.000980
      0.03146      5.85094      3.84074         0.000962      0.000174      0.001567
      3.86510      1.90611      0.08924        -0.002984      0.000099     -0.001489
      3.86511      5.83134      0.08926        -0.003001     -0.000531     -0.001468
      0.00017      7.73751      1.90646         0.004816      0.000003     -0.002294
      0.06772      3.86877      5.77971        -0.007570      0.000009      0.002470
      3.90153      7.73741      1.85300         0.007431     -0.000786     -0.000574
      3.82022      3.86866      1.88051        -0.005691     -0.000902      0.003577
 -----------------------------------------------------------------------------------
    total drift:                                0.000067     -0.000156      0.002178


--------------------------------------------------------------------------------------------------------



  FREE ENERGIE OF THE ION-ELECTRON SYSTEM (eV)
  ---------------------------------------------------
  free  energy   TOTEN  =      -211.60722261 eV

  energy  without entropy=     -211.60722261  energy(sigma->0) =     -211.60722261
 


--------------------------------------------------------------------------------------------------------


    POTLOK:  cpu time    1.0178: real time    1.0180


--------------------------------------------------------------------------------------------------------


 stress matrix after NEB project (eV)
      0.12364      0.00026      0.00016
      0.00026      0.10328      0.00045
      0.00016      0.00045      0.07965
  FORCES: max atom, RMS     0.008529    0.005370
  FORCE total and by dimension    0.030378    0.007570
  Stress total and by dimension    0.179720    0.123645
 Quasi-Newton relaxation of ions (Broydens 2nd method)
  g(Force)  = 0.445E-04   g(Stress)= 0.487E-04

 Reset! Starting new Quasi-Newton update for ions 


--------------------------------------------------------------------------------------------------------


  
 reached required accuracy - stopping structural energy minimisation
 writing wavefunctions
     LOOP+:  cpu time   44.1673: real time   47.2380
    4ORBIT:  cpu time    0.0000: real time    0.0000
 


 total charge     
 
# of ion       s       p       d       tot
------------------------------------------
    1        0.322   6.485   1.751   8.558
    2        0.325   6.494   1.734   8.553
    3        0.316   6.457   1.811   8.584
    4        0.315   6.458   1.821   8.594
    5        0.314   6.477   1.836   8.628
    6        0.295   6.445   1.741   8.481
    7        0.315   6.458   1.800   8.573
    8        0.304   6.425   1.655   8.384
    9        1.567   3.463   0.000   5.030
   10        1.570   3.449   0.000   5.020
   11        1.564   3.409   0.000   4.974
   12        1.564   3.410   0.000   4.974
   13        1.571   3.470   0.000   5.041
   14        1.569   3.475   0.000   5.044
   15        1.575   3.454   0.000   5.028
   16        1.572   3.461   0.000   5.033
   17        1.730   4.389   0.000   6.119
   18        1.732   4.384   0.000   6.117
   19        1.728   4.370   0.000   6.098
   20        1.729   4.370   0.000   6.098
   21        1.730   4.387   0.000   6.118
   22        1.732   4.383   0.000   6.115
   23        1.731   4.390   0.000   6.122
   24        1.732   4.390   0.000   6.121
   25        1.731   4.390   0.000   6.122
   26        1.732   4.390   0.000   6.121
   27        1.731   4.391   0.000   6.122
   28        1.731   4.391   0.000   6.122
   29        1.729   4.376   0.000   6.105
   30        1.728   4.375   0.000   6.104
   31        1.730   4.384   0.000   6.115
   32        1.730   4.376   0.000   6.106
--------------------------------------------------
tot         42.745 149.425  14.151 206.321
 


 magnetization (x)
 
# of ion       s       p       d       tot
------------------------------------------
    1       -0.000   0.000  -0.000  -0.000
    2       -0.000   0.000  -0.000  -0.000
    3       -0.000  -0.000   0.000   0.000
    4       -0.000  -0.000  -0.000  -0.000
    5       -0.000  -0.000   0.000   0.000
    6       -0.000   0.000  -0.000   0.000
    7       -0.000  -0.000   0.000  -0.000
    8       -0.000  -0.000   0.000   0.000
    9       -0.000   0.000   0.000  -0.000
   10        0.000   0.000   0.000   0.000
   11        0.000   0.000   0.000   0.000
   12       -0.000   0.000   0.000  -0.000
   13       -0.000   0.000   0.000   0.000
   14        0.000  -0.000   0.000   0.000
   15        0.000   0.000   0.000   0.000
   16        0.000  -0.000   0.000   0.000
   17        0.000  -0.000   0.000  -0.000
   18        0.000  -0.000   0.000   0.000
   19        0.000  -0.000   0.000   0.000
   20        0.000   0.000   0.000   0.000
   21       -0.000   0.000   0.000  -0.000
   22        0.000  -0.000   0.000   0.000
   23       -0.000  -0.000   0.000  -0.000
   24        0.000   0.000   0.000   0.000
   25       -0.000   0.000   0.000  -0.000
   26        0.000   0.000   0.000   0.000
   27       -0.000  -0.000   0.000  -0.000
   28       -0.000   0.000   0.000   0.000
   29       -0.000   0.000   0.000  -0.000
   30        0.000  -0.000   0.000  -0.000
   31        0.000   0.000   0.000   0.000
   32       -0.000   0.000   0.000  -0.000
--------------------------------------------------
tot          0.000   0.000  -0.000   0.000
 

 total amount of memory used by VASP MPI-rank0    62266. kBytes
=======================================================================

   base      :      30000. kBytes
   nonlr-proj:       8588. kBytes
   fftplans  :       8423. kBytes
   grid      :       8783. kBytes
   one-center:        124. kBytes
   wavefun   :       6348. kBytes
 
  
  
 General timing and accounting informations for this job:
 ========================================================
  
                  Total CPU time used (sec):       60.903
                            User time (sec):       57.526
                          System time (sec):        3.376
                         Elapsed time (sec):       68.952
  
                   Maximum memory used (kb):      174376.
                   Average memory used (kb):           0.
  
                          Minor page faults:       100130
                          Major page faults:            2
                 Voluntary context switches:        18946
