 vasp.5.4.4.18Apr17-6-g9f103f2a35 (build Jul 16 2019 12:12:28) complex          
  
 executed on             LinuxIFC date 2020.02.03  20:47:48
 running on   96 total cores
 distrk:  each k-point on   96 cores,    1 groups
 distr:  one band on NCORES_PER_BAND=   8 cores,   12 groups


--------------------------------------------------------------------------------------------------------


 INCAR:
 POTCAR:    PAW_PBE Li_sv 10Sep2004               
 POTCAR:    PAW_PBE Ti_pv 07Sep2000               
 POTCAR:    PAW_PBE O 08Apr2002                   
 POTCAR:    PAW_PBE F 08Apr2002                   
 POTCAR:    PAW_PBE Li_sv 10Sep2004               
   VRHFIN =Li: 1s2s2p                                                           
   LEXCH  = PE                                                                  
   EATOM  =   202.7858 eV,   14.9043 Ry                                         
                                                                                
   TITEL  = PAW_PBE Li_sv 10Sep2004                                             
   LULTRA =        F    use ultrasoft PP ?                                      
   IUNSCR =        0    unscreen: 0-lin 1-nonlin 2-no                           
   RPACOR =    0.000    partial core radius                                     
   POMASS =    7.010; ZVAL   =    3.000    mass and valenz                      
   RCORE  =    1.700    outmost cutoff radius                                   
   RWIGS  =    2.050; RWIGS  =    1.085    wigner-seitz radius (au A)           
   ENMAX  =  499.034; ENMIN  =  374.276 eV                                      
   ICORE  =        2    local potential                                         
   LCOR   =        T    correct aug charges                                     
   LPAW   =        T    paw PP                                                  
   EAUG   =  628.945                                                            
   RMAX   =    1.732    core radius for proj-oper                               
   RAUG   =    1.300    factor for augmentation sphere                          
   RDEP   =    1.728    radius for radial grids                                 
   RDEPT  =    1.329    core radius for aug-charge                              
                                                                                
   Atomic configuration                                                         
    4 entries                                                                   
     n  l   j            E        occ.                                          
     1  0  0.50       -51.8549   2.0000                                         
     2  0  0.50        -2.8742   1.0000                                         
     2  1  0.50        -1.3606   0.0000                                         
     3  2  1.50        -1.3606   0.0000                                         
   Description                                                                  
     l       E           TYP  RCUT    TYP  RCUT                                 
     0    -51.8548813     23  1.400                                             
     0     -2.8742052     23  1.700                                             
     1     -1.3605826     23  1.400                                             
     2     -1.3605826     23  1.400                                             
  local pseudopotential read in
  atomic valenz-charges read in
  non local Contribution for L=           0  read in
    real space projection operators read in
  non local Contribution for L=           0  read in
    real space projection operators read in
  non local Contribution for L=           1  read in
    real space projection operators read in
    PAW grid and wavefunctions read in
 
   number of l-projection  operators is LMAX  =           3
   number of lm-projection operators is LMMAX =           5
 
 POTCAR:    PAW_PBE Ti_pv 07Sep2000               
   VRHFIN =Ti: d3 s1                                                            
   LEXCH  = PE                                                                  
   EATOM  =  1042.5995 eV,   76.6289 Ry                                         
                                                                                
   TITEL  = PAW_PBE Ti_pv 07Sep2000                                             
   LULTRA =        F    use ultrasoft PP ?                                      
   IUNSCR =        1    unscreen: 0-lin 1-nonlin 2-no                           
   RPACOR =    2.200    partial core radius                                     
   POMASS =   47.880; ZVAL   =   10.000    mass and valenz                      
   RCORE  =    2.500    outmost cutoff radius                                   
   RWIGS  =    2.500; RWIGS  =    1.323    wigner-seitz radius (au A)           
   ENMAX  =  222.335; ENMIN  =  166.751 eV                                      
   RCLOC  =    1.701    cutoff for local pot                                    
   LCOR   =        T    correct aug charges                                     
   LPAW   =        T    paw PP                                                  
   EAUG   =  482.848                                                            
   DEXC   =    0.000                                                            
   RMAX   =    2.564    core radius for proj-oper                               
   RAUG   =    1.300    factor for augmentation sphere                          
   RDEP   =    2.538    radius for radial grids                                 
   RDEPT  =    1.952    core radius for aug-charge                              
                                                                                
   Atomic configuration                                                         
    8 entries                                                                   
     n  l   j            E        occ.                                          
     1  0  0.50     -4865.3608   2.0000                                         
     2  0  0.50      -533.1368   2.0000                                         
     2  1  1.50      -440.5031   6.0000                                         
     3  0  0.50       -59.3186   2.0000                                         
     3  1  1.50       -35.7012   6.0000                                         
     3  2  2.50        -1.9157   3.0000                                         
     4  0  0.50        -3.7291   1.0000                                         
     4  3  2.50        -1.3606   0.0000                                         
   Description                                                                  
     l       E           TYP  RCUT    TYP  RCUT                                 
     1    -35.7012140     23  2.300                                             
     1     -1.3605826     23  2.300                                             
     2     -1.9156996     23  2.500                                             
     2     -0.4063033     23  2.500                                             
     0     -3.7290856     23  2.500                                             
     0     20.4087390     23  2.500                                             
  local pseudopotential read in
  partial core-charges read in
  partial kinetic energy density read in
  atomic valenz-charges read in
  non local Contribution for L=           1  read in
    real space projection operators read in
  non local Contribution for L=           1  read in
    real space projection operators read in
  non local Contribution for L=           2  read in
    real space projection operators read in
  non local Contribution for L=           2  read in
    real space projection operators read in
  non local Contribution for L=           0  read in
    real space projection operators read in
  non local Contribution for L=           0  read in
    real space projection operators read in
    PAW grid and wavefunctions read in
 
   number of l-projection  operators is LMAX  =           6
   number of lm-projection operators is LMMAX =          18
 
 POTCAR:    PAW_PBE O 08Apr2002                   
   VRHFIN =O: s2p4                                                              
   LEXCH  = PE                                                                  
   EATOM  =   432.3788 eV,   31.7789 Ry                                         
                                                                                
   TITEL  = PAW_PBE O 08Apr2002                                                 
   LULTRA =        F    use ultrasoft PP ?                                      
   IUNSCR =        1    unscreen: 0-lin 1-nonlin 2-no                           
   RPACOR =    1.200    partial core radius                                     
   POMASS =   16.000; ZVAL   =    6.000    mass and valenz                      
   RCORE  =    1.520    outmost cutoff radius                                   
   RWIGS  =    1.550; RWIGS  =    0.820    wigner-seitz radius (au A)           
   ENMAX  =  400.000; ENMIN  =  300.000 eV                                      
   ICORE  =        2    local potential                                         
   LCOR   =        T    correct aug charges                                     
   LPAW   =        T    paw PP                                                  
   EAUG   =  605.392                                                            
   DEXC   =    0.000                                                            
   RMAX   =    1.553    core radius for proj-oper                               
   RAUG   =    1.300    factor for augmentation sphere                          
   RDEP   =    1.550    radius for radial grids                                 
   RDEPT  =    1.329    core radius for aug-charge                              
                                                                                
   Atomic configuration                                                         
    4 entries                                                                   
     n  l   j            E        occ.                                          
     1  0  0.50      -514.6923   2.0000                                         
     2  0  0.50       -23.9615   2.0000                                         
     2  1  0.50        -9.0305   4.0000                                         
     3  2  1.50        -9.5241   0.0000                                         
   Description                                                                  
     l       E           TYP  RCUT    TYP  RCUT                                 
     0    -23.9615318     23  1.200                                             
     0     -9.5240782     23  1.200                                             
     1     -9.0304911     23  1.520                                             
     1      8.1634956     23  1.520                                             
     2     -9.5240782      7  1.500                                             
  local pseudopotential read in
  partial core-charges read in
  partial kinetic energy density read in
  kinetic energy density of atom read in
  atomic valenz-charges read in
  non local Contribution for L=           0  read in
    real space projection operators read in
  non local Contribution for L=           0  read in
    real space projection operators read in
  non local Contribution for L=           1  read in
    real space projection operators read in
  non local Contribution for L=           1  read in
    real space projection operators read in
    PAW grid and wavefunctions read in
 
   number of l-projection  operators is LMAX  =           4
   number of lm-projection operators is LMMAX =           8
 
 POTCAR:    PAW_PBE F 08Apr2002                   
   VRHFIN =F: s2p5                                                              
   LEXCH  = PE                                                                  
   EATOM  =   659.6475 eV,   48.4827 Ry                                         
                                                                                
   TITEL  = PAW_PBE F 08Apr2002                                                 
   LULTRA =        F    use ultrasoft PP ?                                      
   IUNSCR =        1    unscreen: 0-lin 1-nonlin 2-no                           
   RPACOR =    1.200    partial core radius                                     
   POMASS =   18.998; ZVAL   =    7.000    mass and valenz                      
   RCORE  =    1.520    outmost cutoff radius                                   
   RWIGS  =    1.500; RWIGS  =    0.794    wigner-seitz radius (au A)           
   ENMAX  =  400.000; ENMIN  =  300.000 eV                                      
   ICORE  =        2    local potential                                         
   LCOR   =        T    correct aug charges                                     
   LPAW   =        T    paw PP                                                  
   EAUG   =  613.614                                                            
   RMAX   =    1.555    core radius for proj-oper                               
   RAUG   =    1.300    factor for augmentation sphere                          
   RDEP   =    1.539    radius for radial grids                                 
   RDEPT  =    1.299    core radius for aug-charge                              
                                                                                
   Atomic configuration                                                         
    4 entries                                                                   
     n  l   j            E        occ.                                          
     1  0  0.50      -663.3661   2.0000                                         
     2  0  0.50       -29.8995   2.0000                                         
     2  1  0.50       -11.1114   5.0000                                         
     3  2  1.50       -10.8847   0.0000                                         
   Description                                                                  
     l       E           TYP  RCUT    TYP  RCUT                                 
     0    -29.8995018     23  1.200                                             
     0     -9.5240782     23  1.200                                             
     1    -11.1113914     23  1.520                                             
     1      1.3605826     23  1.520                                             
     2    -10.8846608      7  1.500                                             
  local pseudopotential read in
  partial core-charges read in
  partial kinetic energy density read in
  atomic valenz-charges read in
  non local Contribution for L=           0  read in
    real space projection operators read in
  non local Contribution for L=           0  read in
    real space projection operators read in
  non local Contribution for L=           1  read in
    real space projection operators read in
  non local Contribution for L=           1  read in
    real space projection operators read in
    PAW grid and wavefunctions read in
 
   number of l-projection  operators is LMAX  =           4
   number of lm-projection operators is LMMAX =           8
 
 Optimization of the real space projectors (new method)

 maximal supplied QI-value         = 22.11
 optimisation between [QCUT,QGAM] = [ 11.28, 22.77] = [ 35.61,145.23] Ry 
 Optimized for a Real-space Cutoff    1.31 Angstroem

   l    n(q)    QCUT    max X(q) W(low)/X(q) W(high)/X(q)  e(spline) 
   0      9    11.276    10.506    0.19E-04    0.17E-04    0.32E-07
   0      9    11.276     8.367    0.38E-04    0.40E-04    0.65E-07
   1      8    11.276     8.983    0.55E-04    0.98E-04    0.20E-06
 Optimization of the real space projectors (new method)

 maximal supplied QI-value         = 15.12
 optimisation between [QCUT,QGAM] = [ 11.34, 22.83] = [ 36.00,145.93] Ry 
 Optimized for a Real-space Cutoff    1.56 Angstroem

   l    n(q)    QCUT    max X(q) W(low)/X(q) W(high)/X(q)  e(spline) 
   1     10    11.338     4.216    0.27E-04    0.12E-04    0.66E-07
   1     10    11.338     5.422    0.81E-04    0.24E-04    0.19E-06
   2     10    11.338    72.084    0.64E-04    0.21E-03    0.51E-06
   2     10    11.338    65.965    0.63E-04    0.21E-03    0.50E-06
   0     11    11.338    41.531    0.33E-04    0.54E-04    0.13E-06
   0     11    11.338    16.290    0.26E-04    0.41E-04    0.11E-06
 Optimization of the real space projectors (new method)

 maximal supplied QI-value         = 24.76
 optimisation between [QCUT,QGAM] = [ 11.39, 22.77] = [ 36.31,145.25] Ry 
 Optimized for a Real-space Cutoff    1.20 Angstroem

   l    n(q)    QCUT    max X(q) W(low)/X(q) W(high)/X(q)  e(spline) 
   0      8    11.387    20.381    0.89E-04    0.31E-03    0.27E-06
   0      8    11.387    15.268    0.93E-04    0.32E-03    0.29E-06
   1      8    11.387     5.964    0.53E-04    0.28E-03    0.29E-06
   1      8    11.387     5.382    0.37E-04    0.22E-03    0.26E-06
 Optimization of the real space projectors (new method)

 maximal supplied QI-value         = 24.76
 optimisation between [QCUT,QGAM] = [ 11.39, 22.77] = [ 36.31,145.25] Ry 
 Optimized for a Real-space Cutoff    1.20 Angstroem

   l    n(q)    QCUT    max X(q) W(low)/X(q) W(high)/X(q)  e(spline) 
   0      8    11.387    14.049    0.69E-04    0.23E-03    0.18E-06
   0      8    11.387     8.945    0.88E-04    0.30E-03    0.26E-06
   1      8    11.387     7.086    0.62E-04    0.27E-03    0.27E-06
   1      8    11.387     6.747    0.46E-04    0.23E-03    0.25E-06

 ----------------------------------------------------------------------------- 
|                                                                             |
|  ADVICE TO THIS USER RUNNING 'VASP/VAMP'   (HEAR YOUR MASTER'S VOICE ...):  |
|                                                                             |
|      You enforced a specific xc-type in the INCAR file,                     |
|      a different type was found on the POTCAR file                          |
|          I HOPE YOU KNOW, WHAT YOU ARE  DOING                               |
|                                                                             |
 ----------------------------------------------------------------------------- 

  PAW_PBE Li_sv 10Sep2004               :
 energy of atom  1       EATOM= -202.7858
 kinetic energy error for atom=    0.0143 (will be added to EATOM!!)
  PAW_PBE Ti_pv 07Sep2000               :
 energy of atom  2       EATOM=-1042.5995
 kinetic energy error for atom=    0.0024 (will be added to EATOM!!)
  PAW_PBE O 08Apr2002                   :
 energy of atom  3       EATOM= -432.3788
 kinetic energy error for atom=    0.0224 (will be added to EATOM!!)
  PAW_PBE F 08Apr2002                   :
 energy of atom  4       EATOM= -659.6475
 kinetic energy error for atom=    0.0354 (will be added to EATOM!!)
 
 
 POSCAR: config 45                               
  positions in direct lattice
  velocities in cartesian coordinates
 exchange correlation table for  LEXCH =       14
   RHO(1)=    0.500       N(1)  =     2000
   RHO(2)=  100.500       N(2)  =     4000

 VTST: version 3.2, (02/03/18)

 CHAIN: initializing optimizer
 
 OPT: Using VASP QUASI-newton optimizer
 CHAIN: Read ICHAIN            0
 
 POSCAR: config 45                               
  positions in direct lattice
  velocities in cartesian coordinates
 


--------------------------------------------------------------------------------------------------------


 ion  position               nearest neighbor table
   1  0.622  0.833  0.118- 100 2.03  94 2.07  24 2.83
   2  0.996  0.996  0.994- 118 1.86  68 1.88 103 1.89 171 2.02 212 2.03 130 2.04
   3  0.001  0.992  0.493- 119 1.81  67 1.82 172 1.94 193 1.95 131 2.01 213 2.08
   4  0.006  0.496  0.998-  89 1.84 117 1.86 138 1.93 132 1.98 214 2.02 194 2.02
   5  0.994  0.502  0.507-  66 1.82 104 1.84 215 1.93 223 2.00 173 2.00 137 2.03
   6  0.494  0.994  0.001- 101 1.82 121 1.87 140 1.95 133 1.97 216 2.00 174 2.04
   7  0.500  0.008  0.500- 112 1.77 191 1.91 134 1.92 139 1.93 175 1.93 225 2.00
   8  0.504  0.494  0.996-  70 1.88 120 1.88  90 1.89 192 2.02 135 2.03 217 2.07
   9  0.492  0.498  0.495- 102 1.81  69 1.85 224 1.97 218 1.98 136 2.02 176 2.06
  10  0.007  0.003  0.256-  91 1.83  67 1.86 219 1.94 227 1.97 130 2.00 197 2.05
  11  0.001  0.008  0.757-  68 1.79 113 1.84 177 1.94 198 1.99 228 2.04 131 2.06
  12  0.994  0.495  0.252- 107 1.82 122 1.86 137 1.93 132 1.96 220 2.00 178 2.02
  13  0.992  0.499  0.742- 108 1.82  66 1.82 226 1.93 221 1.97 138 2.02 179 2.04
  14  0.507  0.008  0.251- 114 1.83  92 1.85 133 1.94 231 1.97 139 1.98 195 2.00
  15  0.493  0.005  0.753- 105 1.81 115 1.83 140 1.95 134 2.00 232 2.00 180 2.03
  16  0.494  0.497  0.258-  69 1.83 106 1.85 222 1.94 229 1.97 135 2.03 181 2.05
  17  0.501  0.504  0.759-  70 1.80 116 1.87 182 1.95 196 1.97 230 2.04 136 2.06
  18  0.996  0.258  0.001- 117 1.82 110 1.87 141 1.96 146 1.96 183 2.00 212 2.02
  19  0.999  0.248  0.491-  74 1.77 213 1.91 184 1.93 202 1.93 223 1.94 142 2.01
  20  0.998  0.758  0.006- 118 1.81  71 1.85 203 1.96 185 1.96 148 2.04 214 2.05
  21  0.997  0.757  0.505- 119 1.83  72 1.84 204 1.94 186 1.96 147 2.02 215 2.02
  22  0.495  0.257  0.002- 120 1.80 109 1.84 150 1.96 143 1.97 187 2.03 216 2.08
  23  0.508  0.245  0.500-  93 1.80 112 1.89 144 1.93 149 1.94 224 1.96 199 2.00
  24  0.506  0.756  0.999-  94 1.86 121 1.87 152 1.92 145 1.93 217 1.99 200 1.99   1 2.83
  25  0.506  0.752  0.508-  73 1.81  95 1.82 218 1.96 225 1.97 151 1.98 201 2.02
  26  1.000  0.259  0.255- 122 1.79  74 1.88 209 1.94 188 1.95 141 1.99 219 2.02
  27  0.006  0.242  0.747- 113 1.80  96 1.83 142 1.96 146 1.97 226 2.04 210 2.05
  28  0.005  0.749  0.243-  71 1.82  97 1.84 220 1.94 227 1.98 211 2.03 147 2.05
  29  0.993  0.751  0.743- 111 1.84  72 1.84 228 1.93 221 1.97 189 2.01 148 2.02
  30  0.509  0.242  0.252-  98 1.82 114 1.82 143 1.93 149 1.97 229 2.01 205 2.02
  31  0.507  0.243  0.751-  99 1.84 115 1.85 150 1.93 144 1.97 230 2.01 206 2.02
  32  0.503  0.752  0.252- 100 1.96 207 1.99 151 1.99 222 2.02 145 2.03 231 2.04
  33  0.501  0.742  0.743- 116 1.81  73 1.82 190 1.94 208 1.97 152 2.05 232 2.06
  34  0.256  0.998  0.007-  75 1.84 101 1.87 246 1.93 233 1.96 171 2.00 157 2.04
  35  0.249  0.994  0.507- 128 1.82  76 1.84 172 1.94 191 1.98 234 2.02 156 2.03
  36  0.244  0.508  0.998- 123 1.82  89 1.84 159 1.93 153 1.97 192 2.02 245 2.03
  37  0.254  0.494  0.507-  77 1.85 102 1.87 127 1.88 173 2.04 235 2.04 158 2.04
  38  0.758  0.001  0.994- 103 1.78  81 1.86 236 1.94 249 1.97 154 2.05 174 2.06
  39  0.751  0.007  0.495- 124 1.83  80 1.83 193 1.93 175 1.98 155 1.99 250 2.02
  40  0.742  0.500  0.005-  90 1.79  78 1.87 247 1.95 237 1.96 161 2.03 194 2.05
  41  0.755  0.498  0.505-  79 1.84 104 1.85 248 1.95 238 1.97 176 2.01 160 2.02
  42  0.245  0.003  0.244-  75 1.84  91 1.85 239 1.93 252 1.96 156 2.03 195 2.05
  43  0.258  0.998  0.745-  76 1.84 105 1.84 253 1.93 240 1.97 177 2.02 157 2.02
  44  0.256  0.493  0.252- 106 1.83 129 1.83 158 1.93 153 1.97 241 2.03 178 2.05
  45  0.247  0.506  0.741-  77 1.79 125 1.83 179 1.95 196 1.97 251 2.03 159 2.06
  46  0.746  0.001  0.256-  92 1.85  80 1.85 256 1.94 242 1.95 197 2.00 154 2.01
  47  0.748  0.006  0.756-  81 1.82 126 1.83 180 1.94 198 1.96 257 2.03 155 2.05
  48  0.756  0.500  0.243-  78 1.81 107 1.85 243 1.95 254 1.96 181 2.01 160 2.04
  49  0.757  0.498  0.742- 108 1.83  79 1.83 255 1.93 244 1.98 182 2.02 161 2.03
  50  0.258  0.251  0.006- 109 1.83  82 1.85 245 1.93 233 1.97 168 2.02 183 2.05
  51  0.253  0.257  0.506- 127 1.80  83 1.85 199 1.96 184 2.01 167 2.03 234 2.05
  52  0.251  0.743  0.993- 123 1.81  86 1.83 200 1.95 185 1.96 162 2.03 246 2.04
  53  0.250  0.755  0.493-  85 1.83 128 1.86 201 1.94 186 1.97 235 2.00 163 2.05
  54  0.758  0.251  0.007- 110 1.81  84 1.85 247 1.94 236 1.94 170 2.03 187 2.03
  55  0.743  0.243  0.498- 124 1.82  93 1.84 169 1.93 164 1.95 248 2.01 202 2.03
  56  0.744  0.749  0.990-  88 1.80  94 1.85 237 1.92 249 1.97 203 1.99 165 2.05
  57  0.741  0.752  0.492-  95 1.81  87 1.84 250 1.94 238 1.96 204 2.03 166 2.04
  58  0.252  0.258  0.244- 129 1.81  82 1.83 205 1.95 188 1.99 167 2.03 239 2.03
  59  0.244  0.251  0.744-  83 1.83  96 1.85 251 1.93 240 1.97 168 2.03 206 2.05
  60  0.242  0.749  0.256-  97 1.83  85 1.84 241 1.93 252 1.98 162 2.03 207 2.04
  61  0.248  0.742  0.757- 125 1.81  86 1.84 189 1.94 208 1.97 163 2.03 253 2.04
  62  0.743  0.252  0.242-  84 1.80  98 1.82 254 1.93 242 1.95 209 2.03 169 2.06
  63  0.744  0.242  0.751- 126 1.82  99 1.84 170 1.93 164 1.99 210 2.02 255 2.04
  64  0.743  0.752  0.254-  87 1.83 100 1.83 243 1.94 256 1.97 211 2.02 165 2.05
  65  0.757  0.751  0.753- 111 1.81  88 1.87 257 1.93 244 1.96 166 2.01 190 2.02
  66  0.006  0.502  0.625-  13 1.82   5 1.82
  67  0.997  0.006  0.376-   3 1.82  10 1.86
  68  0.001  0.003  0.873-  11 1.79   2 1.88
  69  0.501  0.487  0.376-  16 1.83   9 1.85
  70  0.496  0.493  0.875-  17 1.80   8 1.88
  71  0.997  0.747  0.125-  28 1.82  20 1.85
  72  1.000  0.747  0.624-  29 1.84  21 1.84
  73  0.498  0.748  0.625-  25 1.81  33 1.82
  74  0.997  0.247  0.377-  19 1.77  26 1.88
  75  0.256  0.003  0.126-  34 1.84  42 1.84
  76  0.256  0.003  0.626-  43 1.84  35 1.84
  77  0.240  0.496  0.626-  45 1.79  37 1.85
  78  0.752  0.494  0.125-  48 1.81  40 1.87
  79  0.747  0.495  0.624-  49 1.83  41 1.84
  80  0.749  0.999  0.376-  39 1.83  46 1.85
  81  0.745  0.996  0.874-  47 1.82  38 1.86
  82  0.249  0.250  0.126-  58 1.83  50 1.85
  83  0.254  0.249  0.625-  59 1.83  51 1.85
  84  0.747  0.257  0.126-  62 1.80  54 1.85
  85  0.253  0.747  0.375-  53 1.83  60 1.84
  86  0.250  0.753  0.875-  52 1.83  61 1.84
  87  0.746  0.753  0.373-  64 1.83  57 1.84
  88  0.744  0.754  0.874-  56 1.80  65 1.87
  89  0.125  0.504  0.996-   4 1.84  36 1.84
  90  0.626  0.505  1.000-  40 1.79   8 1.89
  91  0.126  0.002  0.251-  10 1.83  42 1.85
  92  0.626  0.996  0.246-  46 1.85  14 1.85
  93  0.625  0.251  0.499-  23 1.80  55 1.84
  94  0.626  0.750  0.013-  56 1.85  24 1.86   1 2.07
  95  0.624  0.756  0.500-  57 1.81  25 1.82
  96  0.125  0.250  0.748-  27 1.83  59 1.85
  97  0.124  0.754  0.251-  60 1.83  28 1.84
  98  0.626  0.251  0.258-  62 1.82  30 1.82
  99  0.625  0.251  0.745-  63 1.84  31 1.84
 100  0.627  0.768  0.232-  64 1.83  32 1.96   1 2.03
 101  0.377  0.997  0.992-   6 1.82  34 1.87
 102  0.375  0.500  0.503-   9 1.81  37 1.87
 103  0.874  0.002  0.999-  38 1.78   2 1.89
 104  0.875  0.497  0.498-   5 1.84  41 1.85
 105  0.376  0.995  0.758-  15 1.81  43 1.84
 106  0.374  0.500  0.251-  44 1.83  16 1.85
 107  0.876  0.502  0.254-  12 1.82  48 1.85
 108  0.875  0.505  0.748-  13 1.82  49 1.83
 109  0.376  0.247  0.001-  50 1.83  22 1.84
 110  0.875  0.247  0.002-  54 1.81  18 1.87
 111  0.874  0.747  0.750-  65 1.81  29 1.84
 112  0.504  0.122  0.492-   7 1.77  23 1.89
 113  0.995  0.126  0.744-  27 1.80  11 1.84
 114  0.501  0.126  0.268-  30 1.82  14 1.83
 115  0.500  0.123  0.754-  15 1.83  31 1.85
 116  0.499  0.625  0.755-  33 1.81  17 1.87
 117  1.000  0.375  0.003-  18 1.82   4 1.86
 118  0.002  0.875  0.001-  20 1.81   2 1.86
 119  0.003  0.875  0.498-   3 1.81  21 1.83
 120  0.502  0.373  0.011-  22 1.80   8 1.88
 121  0.508  0.875  0.018-  24 1.87   6 1.87
 122  0.004  0.375  0.248-  26 1.79  12 1.86
 123  0.256  0.625  0.002-  52 1.81  36 1.82
 124  0.749  0.125  0.503-  55 1.82  39 1.83
 125  0.249  0.625  0.750-  61 1.81  45 1.83
 126  0.753  0.124  0.746-  63 1.82  47 1.83
 127  0.247  0.373  0.494-  51 1.80  37 1.88
 128  0.246  0.876  0.500-  35 1.82  53 1.86
 129  0.245  0.375  0.256-  58 1.81  44 1.83
 130  0.999  0.002  0.127-  10 2.00   2 2.04
 131  0.003  0.998  0.624-   3 2.01  11 2.06
 132  0.999  0.508  0.125-  12 1.96   4 1.98
 133  0.493  0.019  0.127-  14 1.94   6 1.97
 134  0.496  0.001  0.624-   7 1.92  15 2.00
 135  0.501  0.509  0.127-   8 2.03  16 2.03
 136  0.506  0.502  0.625-   9 2.02  17 2.06
 137  0.005  0.497  0.376-  12 1.93   5 2.03
 138  0.997  0.499  0.873-   4 1.93  13 2.02
 139  0.506  0.985  0.377-   7 1.93  14 1.98
 140  0.516  0.991  0.877-  15 1.95   6 1.95
 141  0.005  0.247  0.127-  18 1.96  26 1.99
 142  0.997  0.258  0.621-  27 1.96  19 2.01
 143  0.505  0.234  0.127-  30 1.93  22 1.97
 144  0.493  0.242  0.624-  23 1.93  31 1.97
 145  0.493  0.739  0.122-  24 1.93  32 2.03
 146  0.998  0.250  0.874-  18 1.96  27 1.97
 147  0.994  0.750  0.375-  21 2.02  28 2.05
 148  0.002  0.751  0.874-  29 2.02  20 2.04
 149  0.495  0.266  0.377-  23 1.94  30 1.97
 150  0.504  0.256  0.875-  31 1.93  22 1.96
 151  0.494  0.759  0.381-  25 1.98  32 1.99
 152  0.503  0.760  0.874-  24 1.92  33 2.05
 153  0.247  0.495  0.125-  36 1.97  44 1.97
 154  0.751  0.004  0.126-  46 2.01  38 2.05
 155  0.748  0.997  0.623-  39 1.99  47 2.05
 156  0.251  0.001  0.376-  35 2.03  42 2.03
 157  0.243  0.995  0.875-  43 2.02  34 2.04
 158  0.246  0.511  0.376-  44 1.93  37 2.04
 159  0.257  0.498  0.874-  36 1.93  45 2.06
 160  0.745  0.506  0.374-  41 2.02  48 2.04
 161  0.751  0.504  0.874-  40 2.03  49 2.03
 162  0.252  0.755  0.125-  60 2.03  52 2.03
 163  0.247  0.751  0.626-  61 2.03  53 2.05
 164  0.754  0.259  0.623-  55 1.95  63 1.99
 165  0.758  0.751  0.123-  64 2.05  56 2.05
 166  0.749  0.748  0.624-  65 2.01  57 2.04
 167  0.250  0.244  0.375-  51 2.03  58 2.03
 168  0.250  0.251  0.875-  50 2.02  59 2.03
 169  0.759  0.245  0.374-  55 1.93  62 2.06
 170  0.749  0.247  0.876-  63 1.93  54 2.03
 171  0.127  0.002  0.003-  34 2.00   2 2.02
 172  0.125  0.012  0.500-   3 1.94  35 1.94
 173  0.123  0.504  0.494-   5 2.00  37 2.04
 174  0.626  1.000  0.012-   6 2.04  38 2.06
 175  0.624  0.991  0.505-   7 1.93  39 1.98
 176  0.625  0.498  0.499-  41 2.01   9 2.06
 177  0.127  0.002  0.747-  11 1.94  43 2.02
 178  0.124  0.505  0.248-  12 2.02  44 2.05
 179  0.123  0.495  0.761-  45 1.95  13 2.04
 180  0.624  0.996  0.741-  47 1.94  15 2.03
 181  0.626  0.493  0.249-  48 2.01  16 2.05
 182  0.626  0.495  0.754-  17 1.95  49 2.02
 183  0.125  0.250  0.997-  18 2.00  50 2.05
 184  0.123  0.241  0.502-  19 1.93  51 2.01
 185  0.125  0.745  0.001-  52 1.96  20 1.96
 186  0.123  0.744  0.497-  21 1.96  53 1.97
 187  0.626  0.249  0.998-  22 2.03  54 2.03
 188  0.125  0.240  0.254-  26 1.95  58 1.99
 189  0.123  0.752  0.751-  61 1.94  29 2.01
 190  0.626  0.752  0.748-  33 1.94  65 2.02
 191  0.377  0.001  0.494-   7 1.91  35 1.98
 192  0.374  0.498  0.006-   8 2.02  36 2.02
 193  0.875  0.999  0.507-  39 1.93   3 1.95
 194  0.875  0.500  0.997-   4 2.02  40 2.05
 195  0.377  0.000  0.258-  14 2.00  42 2.05
 196  0.374  0.496  0.743-  17 1.97  45 1.97
 197  0.875  0.004  0.248-  46 2.00  10 2.05
 198  0.874  0.992  0.744-  47 1.96  11 1.99
 199  0.379  0.248  0.496-  51 1.96  23 2.00
 200  0.377  0.758  0.997-  52 1.95  24 1.99
 201  0.375  0.748  0.504-  53 1.94  25 2.02
 202  0.874  0.255  0.502-  19 1.93  55 2.03
 203  0.872  0.755  0.995-  20 1.96  56 1.99
 204  0.872  0.749  0.501-  21 1.94  57 2.03
 205  0.378  0.254  0.250-  58 1.95  30 2.02
 206  0.376  0.250  0.755-  31 2.02  59 2.05
 207  0.374  0.747  0.248-  32 1.99  60 2.04
 208  0.375  0.757  0.751-  33 1.97  61 1.97
 209  0.875  0.252  0.247-  26 1.94  62 2.03
 210  0.874  0.255  0.749-  63 2.02  27 2.05
 211  0.873  0.745  0.250-  64 2.02  28 2.03
 212  0.005  0.127  0.002-  18 2.02   2 2.03
 213  0.992  0.126  0.509-  19 1.91   3 2.08
 214  0.994  0.626  0.995-   4 2.02  20 2.05
 215  0.996  0.626  0.494-   5 1.93  21 2.02
 216  0.506  0.123  0.992-   6 2.00  22 2.08
 217  0.494  0.628  0.992-  24 1.99   8 2.07
 218  0.503  0.625  0.495-  25 1.96   9 1.98
 219  0.996  0.128  0.246-  10 1.94  26 2.02
 220  0.002  0.624  0.256-  28 1.94  12 2.00
 221  0.008  0.625  0.755-  13 1.97  29 1.97
 222  0.510  0.621  0.262-  16 1.94  32 2.02
 223  0.006  0.374  0.498-  19 1.94   5 2.00
 224  0.498  0.371  0.513-  23 1.96   9 1.97
 225  0.493  0.878  0.506-  25 1.97   7 2.00
 226  0.997  0.374  0.751-  13 1.93  27 2.04
 227  0.993  0.877  0.251-  10 1.97  28 1.98
 228  0.002  0.876  0.748-  29 1.93  11 2.04
 229  0.500  0.371  0.237-  16 1.97  30 2.01
 230  0.498  0.373  0.743-  31 2.01  17 2.04
 231  0.495  0.882  0.234-  14 1.97  32 2.04
 232  0.504  0.875  0.748-  15 2.00  33 2.06
 233  0.247  0.124  0.994-  34 1.96  50 1.97
 234  0.254  0.124  0.497-  35 2.02  51 2.05
 235  0.249  0.626  0.505-  53 2.00  37 2.04
 236  0.743  0.126  0.000-  54 1.94  38 1.94
 237  0.758  0.626  1.000-  56 1.92  40 1.96
 238  0.749  0.626  0.500-  57 1.96  41 1.97
 239  0.257  0.127  0.254-  42 1.93  58 2.03
 240  0.253  0.124  0.758-  43 1.97  59 1.97
 241  0.248  0.624  0.242-  60 1.93  44 2.03
 242  0.755  0.127  0.250-  62 1.95  46 1.95
 243  0.741  0.626  0.246-  64 1.94  48 1.95
 244  0.741  0.625  0.748-  65 1.96  49 1.98
 245  0.250  0.376  0.998-  50 1.93  36 2.03
 246  0.245  0.874  0.003-  34 1.93  52 2.04
 247  0.750  0.375  0.989-  54 1.94  40 1.95
 248  0.749  0.372  0.490-  41 1.95  55 2.01
 249  0.744  0.875  0.012-  38 1.97  56 1.97
 250  0.755  0.876  0.504-  57 1.94  39 2.02
 251  0.252  0.376  0.756-  59 1.93  45 2.03
 252  0.256  0.876  0.251-  42 1.96  60 1.98
 253  0.245  0.874  0.747-  43 1.93  61 2.04
 254  0.754  0.375  0.263-  62 1.93  48 1.96
 255  0.753  0.374  0.756-  49 1.93  63 2.04
 256  0.763  0.877  0.241-  46 1.94  64 1.97
 257  0.749  0.875  0.742-  65 1.93  47 2.03
 

IMPORTANT INFORMATION: All symmetrisations will be switched off!
NOSYMM: (Re-)initialisation of all symmetry stuff for point group C_1.

 
 
 KPOINTS: Title                                   

Automatic generation of k-mesh.
Space group operators:
 irot       det(A)        alpha          n_x          n_y          n_z        tau_x        tau_y        tau_z
    1     1.000000     0.000001     1.000000     0.000000     0.000000     0.000000     0.000000     0.000000
 
 Subroutine IBZKPT returns following result:
 ===========================================
 
 Found      4 irreducible k-points:
 
 Following reciprocal coordinates:
            Coordinates               Weight
  0.250000  0.250000  0.250000      2.000000
 -0.250000  0.250000  0.250000      2.000000
  0.250000 -0.250000  0.250000      2.000000
 -0.250000 -0.250000  0.250000      2.000000
 
 Following cartesian coordinates:
            Coordinates               Weight
  0.016206  0.016206  0.016206      2.000000
 -0.016206  0.016206  0.016206      2.000000
  0.016206 -0.016206  0.016206      2.000000
 -0.016206 -0.016206  0.016206      2.000000
 


--------------------------------------------------------------------------------------------------------




 Dimension of arrays:
   k-points           NKPTS =      4   k-points in BZ     NKDIM =      4   number of bands    NBANDS=   1164
   number of dos      NEDOS =   3001   number of ions     NIONS =    257
   non local maximal  LDIM  =      6   non local SUM 2l+1 LMDIM =     18
   total plane-waves  NPLWV = ******
   max r-space proj   IRMAX =   7595   max aug-charges    IRDMAX= 146383
   dimension x,y,z NGX =   120 NGY =  120 NGZ =  120
   dimension x,y,z NGXF=   240 NGYF=  240 NGZF=  240
   support grid    NGXF=   480 NGYF=  480 NGZF=  480
   ions per type =               1  64  64 128
   NGX,Y,Z   is equivalent  to a cutoff of  12.93, 12.93, 12.93 a.u.
   NGXF,Y,Z  is equivalent  to a cutoff of  25.86, 25.86, 25.86 a.u.

 SYSTEM =  LTO                                     
 POSCAR =  config 45                               

 Startparameter for this run:
   NWRITE =      2    write-flag & timer
   PREC   = accura    normal or accurate (medium, high low for compatibility)
   ISTART =      1    job   : 0-new  1-cont  2-samecut
   ICHARG =      0    charge: 1-file 2-atom 10-const
   ISPIN  =      2    spin polarized calculation?
   LNONCOLLINEAR =      F non collinear calculations
   LSORBIT =      F    spin-orbit coupling
   INIWAV =      1    electr: 0-lowe 1-rand  2-diag
   LASPH  =      T    aspherical Exc in radial PAW
   METAGGA=      F    non-selfconsistent MetaGGA calc.

 Electronic Relaxation 1
   ENCUT  =  500.0 eV  36.75 Ry    6.06 a.u.  28.13 28.13 28.13*2*pi/ulx,y,z
   ENINI  =  500.0     initial cutoff
   ENAUG  =  628.9 eV  augmentation charge cutoff
   NELM   =     60;   NELMIN=  2; NELMDL=  0     # of ELM steps 
   EDIFF  = 0.1E-05   stopping-criterion for ELM
   LREAL  =      T    real-space projection
   NLSPLINE    = F    spline interpolate recip. space projectors
   LCOMPAT=      F    compatible to vasp.4.4
   GGA_COMPAT  = T    GGA compatible to vasp.4.4-vasp.4.6
   LMAXPAW     = -100 max onsite density
   LMAXMIX     =    4 max onsite mixed and CHGCAR
   VOSKOWN=      0    Vosko Wilk Nusair interpolation
   ROPT   =   -0.00010  -0.00010  -0.00010  -0.00010
 Ionic relaxation
   EDIFFG = -.5E-01   stopping-criterion for IOM
   NSW    =    100    number of steps for IOM
   NBLOCK =      1;   KBLOCK =    100    inner block; outer block 
   IBRION =      1    ionic relax: 0-MD 1-quasi-New 2-CG
   NFREE  =      0    steps in history (QN), initial steepest desc. (CG)
   ISIF   =      2    stress and relaxation
   IWAVPR =     11    prediction:  0-non 1-charg 2-wave 3-comb
   ISYM   =      0    0-nonsym 1-usesym 2-fastsym
   LCORR  =      T    Harris-Foulkes like correction to forces

   POTIM  = 0.5000    time-step for ionic-motion
   TEIN   =    0.0    initial temperature
   TEBEG  =    0.0;   TEEND  =   0.0 temperature during run
   SMASS  =  -3.00    Nose mass-parameter (am)
   estimated Nose-frequenzy (Omega)   =  0.10E-29 period in steps =****** mass=  -0.544E-26a.u.
   SCALEE = 1.0000    scale energy and forces
   NPACO  =    256;   APACO  = 16.0  distance and # of slots for P.C.
   PSTRESS=    0.0 pullay stress

  Mass of Ions in am
   POMASS =   7.01 47.88 16.00 19.00
  Ionic Valenz
   ZVAL   =   3.00 10.00  6.00  7.00
  Atomic Wigner-Seitz radii
   RWIGS  =  -1.00 -1.00 -1.00 -1.00
  virtual crystal weights 
   VCA    =   1.00  1.00  1.00  1.00
   NELECT =    1923.0000    total number of electrons
   NUPDOWN=       1.0000    fix difference up-down

 DOS related values:
   EMIN   =  10.00;   EMAX   =-10.00  energy-range for DOS
   EFERMI =   0.00
   ISMEAR =     0;   SIGMA  =   0.01  broadening in eV -4-tet -1-fermi 0-gaus

 Electronic relaxation 2 (details)
   IALGO  =     38    algorithm
   LDIAG  =      T    sub-space diagonalisation (order eigenvalues)
   LSUBROT=      F    optimize rotation matrix (better conditioning)
   TURBO    =      0    0=normal 1=particle mesh
   IRESTART =      0    0=no restart 2=restart with 2 vectors
   NREBOOT  =      0    no. of reboots
   NMIN     =      0    reboot dimension
   EREF     =   0.00    reference energy to select bands
   IMIX   =      4    mixing-type and parameters
     AMIX     =   0.40;   BMIX     =  1.00
     AMIX_MAG =   1.60;   BMIX_MAG =  1.00
     AMIN     =   0.10
     WC   =   100.;   INIMIX=   1;  MIXPRE=   1;  MAXMIX= -45

 Intra band minimization:
   WEIMIN = 0.0010     energy-eigenvalue tresh-hold
   EBREAK =  0.21E-09  absolut break condition
   DEPER  =   0.30     relativ break condition  

   TIME   =   0.40     timestep for ELM

  volume/ion in A,a.u.               =      14.28        96.39
  Fermi-wavevector in a.u.,A,eV,Ry     =   1.319690  2.493853 23.695660  1.741582
  Thomas-Fermi vector in A             =   2.449570
 
 Write flags
   LWAVE        =      T    write WAVECAR
   LDOWNSAMPLE  =      F    k-point downsampling of WAVECAR
   LCHARG       =      T    write CHGCAR
   LVTOT        =      F    write LOCPOT, total local potential
   LVHAR        =      F    write LOCPOT, Hartree potential only
   LELF         =      F    write electronic localiz. function (ELF)
   LORBIT       =     11    0 simple, 1 ext, 2 COOP (PROOUT), +10 PAW based schemes


 Dipole corrections
   LMONO  =      F    monopole corrections only (constant potential shift)
   LDIPOL =      F    correct potential (dipole corrections)
   IDIPOL =      0    1-x, 2-y, 3-z, 4-all directions 
   EPSILON=  1.0000000 bulk dielectric constant

 LDA+U is selected, type is set to LDAUTYPE =  2
   angular momentum for each species LDAUL =    -1    2   -1   -1
   U (eV)           for each species LDAUU =   0.0  4.2  0.0  0.0
   J (eV)           for each species LDAUJ =   0.0  0.0  0.0  0.0
 Exchange correlation treatment:
   GGA     =    PS    GGA type
   LEXCH   =    14    internal setting for exchange type
   VOSKOWN=      0    Vosko Wilk Nusair interpolation
   LHFCALC =     F    Hartree Fock is set to
   LHFONE  =     F    Hartree Fock one center treatment
   AEXX    =    0.0000 exact exchange contribution

 Linear response parameters
   LEPSILON=     F    determine dielectric tensor
   LRPA    =     F    only Hartree local field effects (RPA)
   LNABLA  =     F    use nabla operator in PAW spheres
   LVEL    =     F    velocity operator in full k-point grid
   LINTERFAST=   F  fast interpolation
   KINTER  =     0    interpolate to denser k-point grid
   CSHIFT  =0.1000    complex shift for real part using Kramers Kronig
   OMEGAMAX=  -1.0    maximum frequency
   DEG_THRESHOLD= 0.2000000E-02 threshold for treating states as degnerate
   RTIME   =   -0.100 relaxation time in fs
  (WPLASMAI=    0.000 imaginary part of plasma frequency in eV, 0.658/RTIME)
   DFIELD  = 0.0000000 0.0000000 0.0000000 field for delta impulse in time
 
 Orbital magnetization related:
   ORBITALMAG=     F  switch on orbital magnetization
   LCHIMAG   =     F  perturbation theory with respect to B field
   DQ        =  0.001000  dq finite difference perturbation B field
   LLRAUG    =     F  two centre corrections for induced B field



--------------------------------------------------------------------------------------------------------


 quasi-Newton-method for relaxation of ions
 charge density and potential will be updated during run
 spin polarized calculation
 Variant of blocked Davidson
 Davidson routine will perform the subspace rotation
 perform sub-space diagonalisation
    after iterative eigenvector-optimisation
 modified Broyden-mixing scheme, WC =      100.0
 initial mixing is a Kerker type mixing with AMIX =  0.4000 and BMIX =      1.0000
 Hartree-type preconditioning will be used
 using additional bands          202
 real space projection scheme for non local part
 use partial core corrections
 calculate Harris-corrections to forces 
   (improved forces if not selfconsistent)
 use gradient corrections 
 use of overlap-Matrix (Vanderbilt PP)
 Gauss-broadening in eV      SIGMA  =   0.01


--------------------------------------------------------------------------------------------------------


  energy-cutoff  :      500.00
  volume of cell :     3671.03
      direct lattice vectors                 reciprocal lattice vectors
    15.426331000  0.000000000  0.000000000     0.064824228  0.000000000  0.000000000
     0.000000000 15.426331000  0.000000000     0.000000000  0.064824228  0.000000000
     0.000000000  0.000000000 15.426331000     0.000000000  0.000000000  0.064824228

  length of vectors
    15.426331000 15.426331000 15.426331000     0.064824228  0.064824228  0.064824228


 
 old parameters found on file WAVECAR:
  energy-cutoff  :      500.00
  volume of cell :     3671.03
      direct lattice vectors                 reciprocal lattice vectors
    15.426331000  0.000000000  0.000000000     0.064824228  0.000000000  0.000000000
     0.000000000 15.426331000  0.000000000     0.000000000  0.064824228  0.000000000
     0.000000000  0.000000000 15.426331000     0.000000000  0.000000000  0.064824228

  length of vectors

 
 k-points in units of 2pi/SCALE and weight: Title                                   
   0.01620606  0.01620606  0.01620606       0.250
  -0.01620606  0.01620606  0.01620606       0.250
   0.01620606 -0.01620606  0.01620606       0.250
  -0.01620606 -0.01620606  0.01620606       0.250
 
 k-points in reciprocal lattice and weights: Title                                   
   0.25000000  0.25000000  0.25000000       0.250
  -0.25000000  0.25000000  0.25000000       0.250
   0.25000000 -0.25000000  0.25000000       0.250
  -0.25000000 -0.25000000  0.25000000       0.250
 
 position of ions in fractional coordinates (direct lattice) 
   0.62226862  0.83260335  0.11777860
   0.99600048  0.99574591  0.99434057
   0.00060408  0.99219041  0.49337588
   0.00584375  0.49563093  0.99772527
   0.99362886  0.50230713  0.50706435
   0.49400672  0.99444661  0.00143702
   0.50010665  0.00768953  0.49967994
   0.50438976  0.49400849  0.99645503
   0.49173676  0.49761657  0.49534690
   0.00744151  0.00338914  0.25595424
   0.00141917  0.00787202  0.75666154
   0.99368272  0.49487821  0.25162392
   0.99228941  0.49892138  0.74213619
   0.50687723  0.00846766  0.25092376
   0.49265441  0.00459636  0.75333424
   0.49391586  0.49695878  0.25815600
   0.50060588  0.50400292  0.75891665
   0.99576320  0.25751418  0.00102811
   0.99881224  0.24819734  0.49133653
   0.99847018  0.75835783  0.00575067
   0.99740027  0.75701278  0.50549104
   0.49519864  0.25725076  0.00166594
   0.50788324  0.24472255  0.49967590
   0.50613546  0.75591765  0.99867440
   0.50593294  0.75152632  0.50832959
   0.99984460  0.25884229  0.25524032
   0.00637414  0.24238174  0.74712653
   0.00486657  0.74945788  0.24273840
   0.99267318  0.75112247  0.74292181
   0.50853619  0.24238072  0.25217541
   0.50662638  0.24266305  0.75085032
   0.50282707  0.75151704  0.25234091
   0.50098658  0.74179734  0.74275861
   0.25638253  0.99844133  0.00657385
   0.24936508  0.99378647  0.50700034
   0.24374988  0.50790361  0.99800080
   0.25383675  0.49404785  0.50661436
   0.75806775  0.00109369  0.99360068
   0.75090558  0.00668958  0.49460179
   0.74211114  0.49995501  0.00481137
   0.75541610  0.49777108  0.50498501
   0.24534410  0.00264607  0.24423918
   0.25774134  0.99776952  0.74476803
   0.25618836  0.49321004  0.25214350
   0.24703561  0.50610089  0.74130213
   0.74565908  0.00093321  0.25611831
   0.74829376  0.00634805  0.75603949
   0.75606918  0.50043939  0.24255105
   0.75690765  0.49791237  0.74243451
   0.25786067  0.25130043  0.00597259
   0.25255030  0.25671505  0.50569281
   0.25149576  0.74264850  0.99339326
   0.25029699  0.75533254  0.49298619
   0.75793071  0.25064003  0.00676601
   0.74335699  0.24251876  0.49820191
   0.74364075  0.74931972  0.99034981
   0.74075641  0.75189474  0.49193221
   0.25191442  0.25821383  0.24394952
   0.24413352  0.25131166  0.74377806
   0.24200822  0.74878562  0.25584965
   0.24768608  0.74175843  0.75667223
   0.74294876  0.25213901  0.24209569
   0.74410692  0.24198018  0.75063237
   0.74295756  0.75175288  0.25442195
   0.75688876  0.75110687  0.75348800
   0.00571012  0.50150565  0.62470581
   0.99735656  0.00624855  0.37613759
   0.00100205  0.00278463  0.87289447
   0.50069245  0.48702560  0.37636785
   0.49571239  0.49282637  0.87516756
   0.99685531  0.74710486  0.12504399
   0.99969635  0.74657097  0.62415430
   0.49843850  0.74833694  0.62521894
   0.99743476  0.24677836  0.37655143
   0.25632951  0.00332405  0.12551568
   0.25560367  0.00344563  0.62576275
   0.24014582  0.49571371  0.62603960
   0.75249298  0.49402903  0.12513082
   0.74722467  0.49521900  0.62393102
   0.74923161  0.99862218  0.37612818
   0.74523741  0.99626780  0.87374745
   0.24865752  0.24982343  0.12569108
   0.25436614  0.24914332  0.62541431
   0.74659525  0.25714179  0.12577467
   0.25266694  0.74738153  0.37489903
   0.24973413  0.75283958  0.87527774
   0.74631925  0.75312721  0.37292250
   0.74420620  0.75438220  0.87373119
   0.12460552  0.50350142  0.99646204
   0.62603999  0.50517805  0.99955641
   0.12591823  0.00183716  0.25078895
   0.62621353  0.99643887  0.24607580
   0.62459102  0.25068987  0.49871178
   0.62578794  0.74975796  0.01255642
   0.62384508  0.75593682  0.49984921
   0.12458465  0.24984820  0.74751778
   0.12383895  0.75444086  0.25094826
   0.62609223  0.25082336  0.25808017
   0.62548160  0.25082538  0.74472980
   0.62731039  0.76847492  0.23230372
   0.37668628  0.99740990  0.99225185
   0.37467298  0.50024801  0.50307118
   0.87359895  0.00221623  0.99927393
   0.87512136  0.49683701  0.49762036
   0.37609665  0.99510123  0.75845123
   0.37431644  0.49993001  0.25068049
   0.87572209  0.50243701  0.25359391
   0.87483249  0.50549192  0.74840541
   0.37630372  0.24662683  0.00116501
   0.87480994  0.24678165  0.00204272
   0.87400730  0.74655357  0.75041721
   0.50380440  0.12232182  0.49171898
   0.99468956  0.12601073  0.74366258
   0.50050533  0.12569707  0.26838967
   0.50041119  0.12323968  0.75402982
   0.49940497  0.62503134  0.75483047
   0.99950420  0.37541459  0.00344064
   0.00221283  0.87531584  0.00064857
   0.00315054  0.87505246  0.49803324
   0.50199595  0.37317957  0.01064893
   0.50839272  0.87531560  0.01755475
   0.00362258  0.37462852  0.24802560
   0.25556721  0.62547523  0.00188172
   0.74934386  0.12500797  0.50345702
   0.24942090  0.62465084  0.75040776
   0.75293299  0.12435842  0.74601036
   0.24692412  0.37283500  0.49410427
   0.24610888  0.87586184  0.50035826
   0.24516111  0.37495465  0.25619745
   0.99942447  0.00239843  0.12669008
   0.00292815  0.99804124  0.62364236
   0.99891858  0.50802637  0.12505105
   0.49330481  0.01889893  0.12651730
   0.49561116  0.00100826  0.62380623
   0.50118567  0.50940384  0.12709401
   0.50572229  0.50219744  0.62548160
   0.00488126  0.49747291  0.37609518
   0.99705160  0.49881451  0.87298218
   0.50609100  0.98485725  0.37706634
   0.51572320  0.99144952  0.87662785
   0.00494945  0.24657399  0.12715575
   0.99688741  0.25811844  0.62140432
   0.50489413  0.23380100  0.12714620
   0.49270503  0.24220728  0.62363918
   0.49316453  0.73876261  0.12187289
   0.99841248  0.25019598  0.87413771
   0.99407937  0.75008716  0.37509286
   0.00153598  0.75054430  0.87357372
   0.49546513  0.26647789  0.37667448
   0.50377954  0.25562492  0.87509206
   0.49365767  0.75947083  0.38102844
   0.50279413  0.76002400  0.87423515
   0.24676075  0.49508874  0.12490507
   0.75128180  0.00425185  0.12621585
   0.74779680  0.99662068  0.62342348
   0.25087985  0.00108507  0.37588945
   0.24300786  0.99516696  0.87503967
   0.24553445  0.51087866  0.37551271
   0.25724777  0.49752244  0.87397617
   0.74527151  0.50609952  0.37444792
   0.75082661  0.50402487  0.87379596
   0.25207968  0.75451526  0.12464643
   0.24728911  0.75114272  0.62553986
   0.75449788  0.25942259  0.62324275
   0.75782924  0.75147478  0.12269204
   0.74886507  0.74759929  0.62375187
   0.25008824  0.24355700  0.37477552
   0.24996451  0.25092907  0.87544741
   0.75899473  0.24526850  0.37426326
   0.74905591  0.24655984  0.87578562
   0.12655805  0.00242594  0.00321775
   0.12476713  0.01163892  0.50045118
   0.12282331  0.50392067  0.49403985
   0.62601488  0.99970574  0.01162809
   0.62397933  0.99055743  0.50467863
   0.62522440  0.49792842  0.49905441
   0.12694229  0.00194626  0.74666206
   0.12402633  0.50526075  0.24790727
   0.12289982  0.49510805  0.76119984
   0.62366458  0.99641546  0.74091033
   0.62613515  0.49262161  0.24907120
   0.62630699  0.49465250  0.75384060
   0.12543695  0.25012958  0.99687156
   0.12331204  0.24085435  0.50168113
   0.12486369  0.74523319  0.00090229
   0.12315514  0.74404351  0.49650422
   0.62643150  0.24921333  0.99780540
   0.12484185  0.24041133  0.25392725
   0.12269415  0.75228425  0.75080999
   0.62599267  0.75239471  0.74761487
   0.37692429  0.00068516  0.49370856
   0.37395878  0.49751674  0.00619634
   0.87493780  0.99948458  0.50709594
   0.87475545  0.49994049  0.99749048
   0.37738045  0.00048768  0.25838771
   0.37428340  0.49622676  0.74311436
   0.87474181  0.00435566  0.24834664
   0.87424542  0.99192303  0.74402219
   0.37860227  0.24763709  0.49557165
   0.37684576  0.75840661  0.99734818
   0.37525225  0.74821285  0.50390066
   0.87430159  0.25546301  0.50225149
   0.87227222  0.75481342  0.99454686
   0.87184372  0.74932933  0.50104941
   0.37831939  0.25359626  0.25032407
   0.37626956  0.25048980  0.75451068
   0.37401407  0.74676241  0.24828028
   0.37452148  0.75655089  0.75083796
   0.87459019  0.25156083  0.24744468
   0.87411774  0.25511906  0.74947391
   0.87342329  0.74529206  0.25032044
   0.00452044  0.12695844  0.00163480
   0.99208178  0.12572147  0.50900675
   0.99418835  0.62584154  0.99488427
   0.99638410  0.62649035  0.49354267
   0.50577275  0.12343629  0.99155993
   0.49392213  0.62779040  0.99207312
   0.50263140  0.62528739  0.49478226
   0.99551087  0.12815656  0.24625423
   0.00156770  0.62417149  0.25602778
   0.00777075  0.62477881  0.75471633
   0.50968970  0.62144637  0.26221092
   0.00638076  0.37369552  0.49796004
   0.49849342  0.37106341  0.51276176
   0.49334188  0.87839978  0.50559756
   0.99700362  0.37431912  0.75133410
   0.99287476  0.87681453  0.25142569
   0.00152557  0.87591293  0.74752621
   0.49991462  0.37129649  0.23696382
   0.49776306  0.37254866  0.74261354
   0.49454470  0.88226505  0.23396539
   0.50358229  0.87526891  0.74836004
   0.24712324  0.12444741  0.99382723
   0.25436336  0.12430693  0.49704578
   0.24877580  0.62632731  0.50471149
   0.74285971  0.12591752  0.00048238
   0.75809924  0.62584402  0.99997869
   0.74868714  0.62551442  0.50012472
   0.25741550  0.12679494  0.25379376
   0.25264004  0.12438409  0.75785151
   0.24788511  0.62427576  0.24192009
   0.75452925  0.12671715  0.24976771
   0.74072207  0.62609329  0.24621784
   0.74116160  0.62500669  0.74829053
   0.25027928  0.37622401  0.99783352
   0.24454292  0.87402675  0.00332105
   0.74999769  0.37473474  0.98888233
   0.74929619  0.37243109  0.49048106
   0.74399322  0.87536169  0.01190287
   0.75529398  0.87641266  0.50389248
   0.25203907  0.37573782  0.75625460
   0.25586646  0.87612699  0.25103871
   0.24490233  0.87363358  0.74676428
   0.75401037  0.37501929  0.26251462
   0.75258454  0.37351317  0.75618501
   0.76281266  0.87714602  0.24092023
   0.74879188  0.87523297  0.74220702
 
 position of ions in cartesian coordinates  (Angst):
   9.59932171 12.84401487  1.81689173
  15.36463313 15.36070596 15.33902672
   0.00931868 15.30585772  7.61097956
   0.09014768  7.64576686 15.39124021
  15.32804770  7.74875610  7.82214256
   7.62071112 15.34066257  0.02216792
   7.71481074  0.11862117  7.70822816
   7.78088334  7.62073856 15.37164506
   7.58569408  7.67639788  7.64138517
   0.11479518  0.05228201  3.94843480
   0.02189258  0.12143645 11.67251144
  15.32887859  7.63415506  3.88163395
  15.30738484  7.69652629 11.44843855
   7.81925587  0.13062496  3.87083304
   7.59984995  0.07090499 11.62118326
   7.61930953  7.66625065  3.98239996
   7.72251196  7.77491585 11.70729951
  15.36097273  3.97249905  0.01585998
  15.40800818  3.82877440  7.57951991
  15.40273143 11.69867886  0.08871173
  15.38622672 11.67792969  7.79787205
   7.63909820  3.96843535  0.02569933
   7.83477495  3.77517103  7.70816586
   7.80781318 11.66103581 15.40588190
   7.80468903 11.59329380  7.84166049
  15.42393380  3.99298677  3.93742160
   0.09832965  3.73906099 11.52542114
   0.07507334 11.56138540  3.74456283
  15.31330512 11.58706380 11.46055778
   7.84484765  3.73904525  3.89014136
   7.81538628  3.74340059 11.58286562
   7.75677688 11.59315059  3.89269447
   7.72838476 11.44321127 11.45804010
   3.95504182 15.40228648  0.10141043
   3.84678828 15.33047904  7.82115502
   3.76016631  7.83508915 15.39549061
   3.91576978  7.62134564  7.81520077
  11.69420399  0.01687165 15.32761290
  11.58371807  0.10319562  7.62989090
  11.44805201  7.71247144  0.07422185
  11.65329873  7.67878143  7.79006597
   3.78475923  0.04081918  3.76771439
   3.97600324 15.39192282 11.48903809
   3.95204641  7.60842136  3.88964905
   3.81085308  7.80727987 11.43557198
  11.50278380  0.01439607  3.95096578
  11.54342729  0.09792719 11.66291549
  11.66337349  7.71994366  3.74167284
  11.67630792  7.68096110 11.45304044
   3.97784410  3.87664363  0.09213507
   3.89592459  3.96017129  7.80098462
   3.87965687 11.45634154 15.32441329
   3.86116423 11.65200970  7.60496822
  11.69208998  3.86645599  0.10437464
  11.46727101  3.74117468  7.68542753
  11.47164837 11.55925410 15.27746401
  11.42715354 11.59897708  7.58870914
   3.88611529  3.98329198  3.76324599
   3.76608448  3.87681685 11.47376657
   3.73329892 11.55101476  3.94682144
   3.82088746 11.44261102 11.67267632
  11.46097351  3.88957976  3.73464823
  11.47883972  3.73286631 11.57950336
  11.46110920 11.59678879  3.92479719
  11.67601651 11.58682324 11.62355536
   0.08808621  7.73639217  9.63691867
  15.38555237  0.09639219  5.80242293
   0.01545793  0.04295663 13.46555904
   7.72384747  7.51301818  5.80597496
   7.64702336  7.60250264 13.50062451
  15.37782003 11.52508693  1.92897003
  15.42164675 11.51685086  9.62841087
   7.68907733 11.54409340  9.64483430
  15.38675881  3.80688468  5.80880702
   3.95422394  0.05127785  1.93624636
   3.94302686  0.05315343  9.65322334
   3.70456886  7.64704371  9.65749404
  11.60820571  7.62105541  1.93030938
  11.52693508  7.63941228  9.62496649
  11.55789485 15.40507625  5.80227777
  11.49627902 15.36875692 13.47871732
   3.83587323  3.85385891  1.93895223
   3.92393621  3.84336730  9.64784811
  11.51722542  3.96675437  1.94024167
   3.89772382 11.52935482  5.78331648
   3.85248132 11.61355254 13.50232416
  11.51296771 11.61798961  5.75282590
  11.48037115 11.63734953 13.47846648
   1.92220604  7.76717960 15.37175331
   9.65750014  7.79304379 15.41948796
   1.94245623  0.02834067  3.86875329
   9.66017711 15.37139588  3.79604680
   9.63514785  3.86722490  7.69329293
   9.65361195 11.56601448  0.19369947
   9.62364068 11.66133162  7.71083936
   1.92188405  3.85424103 11.53145678
   1.91038068 11.63825442  3.87121093
   9.65830605  3.86928418  3.98123015
   9.64888613  3.86931530 11.48844839
   9.67709772 11.85474841  3.58359414
   5.81088724 15.38637528 15.30680542
   5.77982938  7.71699142  7.76054254
  13.47642655  0.03418829 15.41513040
  13.49991182  7.66437224  7.67645646
   5.80179135 15.35076095 11.70011973
   5.77432932  7.71208574  3.86708027
  13.50917888  7.75075959  3.91202361
  13.49545554  7.79788562 11.54514965
   5.80498570  3.80454707  0.01797185
  13.49510766  3.80693542  0.03151162
  13.48272587 11.51658254 11.57618433
   7.77185346  1.88697688  7.58541980
  15.34441035  1.94388326 11.47198518
   7.72096083  1.93904460  4.14026787
   7.71950867  1.90113616 11.63191353
   7.70398634  9.64194029 11.64426465
  15.41868270  5.79126975  0.05307638
   0.03413577 13.50291181  0.01000513
   0.04860126 13.49884882  7.68282554
   7.74395565  5.75679156  0.16427397
   7.84263435 13.50290816  0.27080538
   0.05588319  5.77914357  3.82612502
   3.94246440  9.64878796  0.02902800
  11.55962647  1.92841433  7.76649466
   3.84764942  9.63607063 11.57603850
  11.61499345  1.91839423 11.50820281
   3.80913318  5.75147610  7.62221596
   3.79655700 13.51133466  7.71869215
   3.78193643  5.78417452  3.95218663
  15.41745264  0.03699902  1.95436303
   0.04517063 15.39611448  9.62051342
  15.40964868  7.83698296  1.92907886
   7.60988336  0.29154110  1.95169767
   7.64546175  0.01555371  9.62304138
   7.73145599  7.85823225  1.96059426
   7.80143937  7.74706397  9.64888616
   0.07529993  7.67418180  5.80176877
  15.38084806  7.69487768 13.46691209
   7.80712722 15.19273388  5.81675012
   7.95571674 15.29442846 13.52315139
   0.07635188  3.80373192  1.96154674
  15.37831518  3.98182046  9.58598867
   7.78866392  3.60669160  1.96139935
   7.60063088  3.73636962  9.62046442
   7.60771921 11.39639653  1.88005154
  15.40184134  3.85960594 13.48473759
  15.33499738 11.57109285  5.78630663
   0.02369459 11.57814483 13.47603729
   7.64320903  4.11077612  5.81070523
   7.77147001  3.94335461 13.49945976
   7.61532666 11.71584839  5.87787083
   7.75626874 11.72438172 13.48624081
   3.80661296  7.63740274  1.92682695
  11.58952167  0.06559050  1.94704747
  11.53576095 15.37420047  9.61713690
   3.87015561  0.01673860  5.79859514
   3.74871964 15.35177487 13.49865161
   3.78769563  7.88098335  5.79278338
   3.96838918  7.67494584 13.48224562
  11.49680495  7.80725872  5.77635754
  11.58249985  7.77525443 13.47946576
   3.88866451 11.63940222  1.92283710
   3.81476367 11.58737627  9.64978486
  11.63913409  4.00193873  9.61434902
  11.69052469 11.59249864  1.89268800
  11.55224045 11.53271408  9.62220288
   3.85794404  3.75719087  5.78141126
   3.85603532  3.87091490 13.50494147
  11.70850389  3.78359301  5.77350891
  11.55518438  3.80351369 13.51015888
   1.95232640  0.03742339  0.04963807
   1.92469909  0.17954585  7.72012550
   1.89471302  7.77364712  7.62122225
   9.65711279 15.42179162  0.17937870
   9.62571171 15.28066680  7.78533967
   9.64491847  7.68120869  7.69857847
   1.95825381  0.03002364 11.51825603
   1.91327121  7.79431959  3.82429966
   1.89589328  7.63770065 11.74252063
   9.62085627 15.37103470 11.42952800
   9.65896805  7.59934399  3.84225473
   9.66161900  7.63067313 11.62899456
   1.93503191  3.85858175 15.37807065
   1.90225228  3.71549898  7.73909910
   1.92618865 11.49621381  0.01391904
   1.89983190 11.47786152  7.65923840
   9.66353964  3.84444739 15.39247636
   1.92585171  3.70866475  3.91716578
   1.89272050 11.60498586 11.58224337
   9.65677007 11.60668985 11.53295443
   5.81455881  0.01056944  7.61611166
   5.76881198  7.67485791  0.09558681
  13.49708004 15.41837991  7.82262978
  13.49426708  7.71224747 15.38761829
   5.82159573  0.00752319  3.98597435
   5.77381969  7.65495830 11.46352808
  13.49405663  0.06719183  3.83107749
  13.48639924 15.30173295 11.47753260
   5.84044401  3.82013178  7.64485226
   5.81334737 11.69943147 15.38542318
   5.78876541 11.54217908  7.77333839
  13.48726576  3.94085699  7.74789778
  13.45596005 11.64400160 15.34220905
  13.44934977 11.55940228  7.72935400
   5.83608016  3.91205978  3.86158195
   5.80445872  3.86413855 11.63933152
   5.76966483 11.51980410  3.83005381
   5.77749227 11.67080442 11.58267487
  13.49171773  3.88066069  3.81716353
  13.48442952  3.93555105 11.56163264
  13.47371671 11.49712194  3.86152598
   0.06973378  1.95850299  0.02521899
  15.30418191  1.93942094  7.85210657
  15.33667853  9.65443869 15.34741412
  15.37055098  9.66444744  7.61355255
   7.80221780  1.90416911 15.29613169
   7.61940623  9.68450251 15.30404828
   7.75375841  9.64589023  7.63267493
  15.35708019  1.97698552  3.79879923
   0.02418385  9.62867599  3.94956933
   0.11987420  9.63804476 11.64250390
   7.86264209  9.58663738  4.04495244
   0.09843178  5.76475083  7.68169637
   7.68992451  5.72414696  7.91003264
   7.61045517 13.55048572  7.79951527
  15.38010785  5.77437072 11.59032854
  15.31641465 13.52603117  3.87857593
   0.02353398 13.51212273 11.53158673
   7.71184835  5.72774255  3.65548239
   7.67865770  5.74705893 11.45580231
   7.62901020 13.61011269  3.60922750
   7.76842711 13.50218797 11.54444973
   3.81220482  1.91976687 15.33110778
   3.92389336  1.91759981  7.66759276
   3.83769777  9.66193247  7.78584658
  11.45959977  1.94244536  0.00744133
  11.69468986  9.65447698 15.42600233
  11.54949561  9.64939245  7.71508950
   3.97097669  1.95598075  3.91510659
   3.89730884  1.91879013 11.69086828
   3.82395775  9.63028454  3.73193931
  11.63961803  1.95478069  3.85299941
  11.42662384  9.65832240  3.79823790
  11.43340419  9.64156010 11.54337736
   3.86089107  5.80375618 15.39291020
   3.77240002 13.48302591  0.05123155
  11.56971266  5.78078215 15.25482621
  11.55889104  5.74524525  7.56632317
  11.47708567 13.50361920  0.18361757
  11.65141501 13.51983177  7.77321223
   3.88803817  5.79625594 11.66623372
   3.94708075 13.51542494  3.87260619
   3.77794448 13.47696074 11.51983290
  11.63161354  5.78517170  4.04963744
  11.60961827  5.76193774 11.66516022
  11.76740057 13.53114488  3.71651518
  11.55111144 13.50163350 11.44953123
 


--------------------------------------------------------------------------------------------------------


 k-point  1 :   0.2500 0.2500 0.2500  plane waves:   93161
 k-point  2 :  -0.2500 0.2500 0.2500  plane waves:   93161
 k-point  3 :   0.2500-0.2500 0.2500  plane waves:   93161
 k-point  4 :  -0.2500-0.2500 0.2500  plane waves:   93161

 maximum and minimum number of plane-waves per node :     11686    11606

 maximum number of plane-waves:     93161
 maximum index in each direction: 
   IXMAX=   28   IYMAX=   28   IZMAX=   27
   IXMIN=  -28   IYMIN=  -28   IZMIN=  -28


 real space projection operators:
  total allocation   :     105589.34 KBytes
  max/ min on nodes  :      13241.23      13172.88


 parallel 3D FFT for wavefunctions:
    minimum data exchange during FFTs selected (reduces bandwidth)
 parallel 3D FFT for charge:
    minimum data exchange during FFTs selected (reduces bandwidth)


 total amount of memory used by VASP MPI-rank0   291466. kBytes
=======================================================================

   base      :      30000. kBytes
   nonlr-proj:      49431. kBytes
   fftplans  :      27976. kBytes
   grid      :      34041. kBytes
   one-center:       1026. kBytes
   wavefun   :     148992. kBytes
 
     INWAV:  cpu time   57.1967: real time   60.7185
 Broyden mixing: mesh for mixing (old mesh)
   NGX = 57   NGY = 57   NGZ = 57
  (NGX  =240   NGY  =240   NGZ  =240)
  gives a total of 185193 points

 charge density for first step will be calculated from the start-wavefunctions


--------------------------------------------------------------------------------------------------------


 Maximum index for non-local projection operator          968
 Maximum index for augmentation-charges         3293 (set IRDMAX)


--------------------------------------------------------------------------------------------------------


 initial charge from wavefunction
 First call to EWALD:  gamma=   0.115
 Maximum number of real-space cells 3x 3x 3
 Maximum number of reciprocal cells 3x 3x 3

    FEWALD:  cpu time    0.0297: real time    0.0297


--------------------------------------- Iteration      1(   1)  ---------------------------------------


    POTLOK:  cpu time    0.2736: real time    0.2868
    SETDIJ:  cpu time    1.3966: real time    1.3980
     EDDAV:  cpu time   90.2465: real time   90.9247
       DOS:  cpu time    0.0020: real time    0.0020
    CHARGE:  cpu time    5.2313: real time    5.2667
    MIXING:  cpu time    0.0107: real time    0.0108
    --------------------------------------------
      LOOP:  cpu time   97.1610: real time   97.8892

 eigenvalue-minimisations  : 13980
 total energy-change (2. order) :-0.1757934E+04  (-0.1581698E-06)
 number of electron    1923.0000028 magnetization       1.0000000
 augmentation part      497.0206565 magnetization       0.5801249

 Broyden mixing:
  rms(total) = 0.28345E-03    rms(broyden)= 0.23501E-03
  rms(prec ) = 0.26273E-03
  weight for this iteration     100.00
  WARNING: grid for Broyden might be to small

 Free energy of the ion-electron system (eV)
  ---------------------------------------------------
  alpha Z        PSCENC =      6118.73324990
  Ewald energy   TEWEN  =   -103151.14404555
  -Hartree energ DENC   =    -65468.19727691
  -exchange      EXHF   =         0.00000000
  -V(xc)+E(xc)   XCENC  =      8971.77542654
  PAW double counting   =    198402.06151213  -199409.26548714
  entropy T*S    EENTRO =        -0.00000000
  eigenvalues    EBANDS =    -25799.15035129
  atomic energy  EATOM  =    178577.25249613
  Solvation  Ediel_sol  =         0.00000000
  ---------------------------------------------------
  free energy    TOTEN  =     -1757.93447618 eV

  energy without entropy =    -1757.93447618  energy(sigma->0) =    -1757.93447618


--------------------------------------------------------------------------------------------------------




--------------------------------------- Iteration      1(   2)  ---------------------------------------


    POTLOK:  cpu time    0.2670: real time    0.2672
    SETDIJ:  cpu time    1.4046: real time    1.4057
     EDDAV:  cpu time   85.6690: real time   87.5126
       DOS:  cpu time    0.0022: real time    0.0022
    --------------------------------------------
      LOOP:  cpu time   87.3427: real time   89.1876

 eigenvalue-minimisations  : 12156
 total energy-change (2. order) :-0.3699097E-07  (-0.9568263E-07)
 number of electron    1923.0000028 magnetization       1.0000000
 augmentation part      497.0206565 magnetization       0.5801249

 Free energy of the ion-electron system (eV)
  ---------------------------------------------------
  alpha Z        PSCENC =      6118.73324990
  Ewald energy   TEWEN  =   -103151.14404555
  -Hartree energ DENC   =    -65468.19749393
  -exchange      EXHF   =         0.00000000
  -V(xc)+E(xc)   XCENC  =      8971.77562204
  PAW double counting   =    198402.08963865  -199409.29405951
  entropy T*S    EENTRO =        -0.00000000
  eigenvalues    EBANDS =    -25799.14988394
  atomic energy  EATOM  =    178577.25249613
  Solvation  Ediel_sol  =         0.00000000
  ---------------------------------------------------
  free energy    TOTEN  =     -1757.93447622 eV

  energy without entropy =    -1757.93447622  energy(sigma->0) =    -1757.93447622


--------------------------------------------------------------------------------------------------------




 average (electrostatic) potential at core
  the test charge radii are     0.7079  1.0397  0.7215  0.7167
  (the norm of the test charge is              1.0000)
       1 -63.3445       2 -58.4504       3 -58.8082       4 -58.7699       5 -58.8312
       6 -58.8741       7 -59.7594       8 -58.4381       9 -58.6160      10 -58.8505
      11 -58.6034      12 -58.9038      13 -58.8081      14 -59.0714      15 -58.8833
      16 -58.6656      17 -58.6294      18 -58.8317      19 -59.4978      20 -58.5902
      21 -58.8782      22 -58.6141      23 -59.4145      24 -59.0264      25 -58.8052
      26 -59.0781      27 -58.6865      28 -58.6854      29 -58.8902      30 -59.0488
      31 -58.9619      32 -57.0068      33 -58.6679      34 -58.8451      35 -58.8079
      36 -58.6815      37 -58.3752      38 -58.6814      39 -59.1424      40 -58.6643
      41 -58.8799      42 -58.8252      43 -58.8495      44 -58.6782      45 -58.5660
      46 -59.1140      47 -58.8407      48 -58.8123      49 -58.8307      50 -58.7230
      51 -58.6365      52 -58.6564      53 -58.7735      54 -58.8818      55 -59.2109
      56 -58.9135      57 -58.9138      58 -58.7064      59 -58.7329      60 -58.7082
      61 -58.6823      62 -58.9580      63 -58.9104      64 -58.8323      65 -58.9735
      66 -74.1344      67 -73.9916      68 -73.8249      69 -73.7890      70 -73.7566
      71 -73.8627      72 -74.0202      73 -74.1122      74 -74.5651      75 -73.9676
      76 -73.9983      77 -73.8853      78 -73.9570      79 -73.9898      80 -74.2918
      81 -74.0559      82 -73.9006      83 -73.8764      84 -74.3345      85 -73.9003
      86 -73.8658      87 -74.1347      88 -74.2065      89 -73.8713      90 -73.8133
      91 -74.0220      92 -74.2204      93 -74.6142      94 -74.2400      95 -74.2160
      96 -73.9420      97 -73.9136      98 -74.3647      99 -74.0711     100 -73.8094
     101 -74.0204     102 -73.7748     103 -73.8947     104 -73.9622     105 -74.2018
     106 -73.8670     107 -74.0026     108 -74.1118     109 -73.8928     110 -74.0337
     111 -74.2288     112 -74.8129     113 -74.0469     114 -74.3250     115 -74.0722
     116 -73.9103     117 -73.9202     118 -73.7751     119 -74.2375     120 -73.8398
     121 -74.0361     122 -74.3020     123 -74.0055     124 -74.4874     125 -73.9950
     126 -74.2066     127 -73.8010     128 -73.9459     129 -74.0380     130 -78.3616
     131 -78.3707     132 -79.1282     133 -79.5536     134 -79.7932     135 -78.2126
     136 -78.2154     137 -78.9711     138 -78.9262     139 -79.8332     140 -79.5136
     141 -79.1390     142 -79.0936     143 -79.4886     144 -79.6506     145 -79.0235
     146 -79.1735     147 -78.3758     148 -78.3745     149 -79.6900     150 -79.4190
     151 -78.7553     152 -79.1857     153 -78.9871     154 -78.5986     155 -78.6128
     156 -78.4086     157 -78.3821     158 -78.7792     159 -78.7659     160 -78.3852
     161 -78.4077     162 -78.3492     163 -78.3081     164 -79.4036     165 -78.6176
     166 -78.6280     167 -78.3571     168 -78.3246     169 -79.2456     170 -79.1316
     171 -78.3961     172 -79.5380     173 -78.3442     174 -78.3717     175 -79.8751
     176 -78.2984     177 -78.9390     178 -78.3435     179 -78.8726     180 -79.0021
     181 -78.3777     182 -78.8612     183 -78.3980     184 -79.4531     185 -79.0932
     186 -79.1696     187 -78.3975     188 -79.2797     189 -78.9849     190 -78.9760
     191 -79.8028     192 -78.3052     193 -79.6350     194 -78.2391     195 -78.5494
     196 -79.0029     197 -78.5320     198 -79.1191     199 -79.1600     200 -79.0501
     201 -78.9961     202 -79.4295     203 -79.0376     204 -79.0513     205 -79.0711
     206 -78.4369     207 -78.4878     208 -79.1454     209 -79.2052     210 -78.4762
     211 -78.4553     212 -78.2932     213 -79.2916     214 -78.2874     215 -79.0894
     216 -78.3926     217 -78.4466     218 -79.2035     219 -78.9978     220 -78.9809
     221 -79.1844     222 -78.8429     223 -79.4265     224 -79.2024     225 -79.2080
     226 -78.9953     227 -79.1178     228 -78.9837     229 -78.9656     230 -78.4468
     231 -78.8120     232 -78.4586     233 -79.0451     234 -78.3221     235 -78.3286
     236 -79.4547     237 -79.4997     238 -79.2884     239 -78.9235     240 -79.0811
     241 -78.8712     242 -79.6198     243 -79.4987     244 -79.2466     245 -78.8286
     246 -78.8949     247 -79.4320     248 -79.1595     249 -79.5240     250 -79.1988
     251 -78.8699     252 -79.0785     253 -78.9002     254 -79.5379     255 -79.0271
     256 -79.5271     257 -79.0902
 
 
 
 E-fermi :  -0.6525     XC(G=0):  -9.0380     alpha+bet : -7.7421


 spin component 1

 k-point     1 :       0.2500    0.2500    0.2500
  band No.  band energies     occupation 
      1     -44.0104      1.00000
      2     -35.7764      1.00000
      3     -35.7681      1.00000
      4     -35.5853      1.00000
      5     -35.4913      1.00000
      6     -35.4731      1.00000
      7     -35.4473      1.00000
      8     -35.3316      1.00000
      9     -35.3006      1.00000
     10     -35.2828      1.00000
     11     -35.2139      1.00000
     12     -35.1891      1.00000
     13     -35.1537      1.00000
     14     -35.1269      1.00000
     15     -35.1250      1.00000
     16     -35.1016      1.00000
     17     -35.0981      1.00000
     18     -35.0870      1.00000
     19     -35.0561      1.00000
     20     -35.0392      1.00000
     21     -35.0287      1.00000
     22     -35.0153      1.00000
     23     -34.9990      1.00000
     24     -34.9987      1.00000
     25     -34.9981      1.00000
     26     -34.9860      1.00000
     27     -34.9859      1.00000
     28     -34.9633      1.00000
     29     -34.9615      1.00000
     30     -34.9555      1.00000
     31     -34.9530      1.00000
     32     -34.9500      1.00000
     33     -34.9435      1.00000
     34     -34.9400      1.00000
     35     -34.9333      1.00000
     36     -34.9274      1.00000
     37     -34.9161      1.00000
     38     -34.9138      1.00000
     39     -34.9119      1.00000
     40     -34.9055      1.00000
     41     -34.9047      1.00000
     42     -34.9029      1.00000
     43     -34.8992      1.00000
     44     -34.8943      1.00000
     45     -34.8915      1.00000
     46     -34.8858      1.00000
     47     -34.8709      1.00000
     48     -34.8708      1.00000
     49     -34.8594      1.00000
     50     -34.8587      1.00000
     51     -34.8535      1.00000
     52     -34.8526      1.00000
     53     -34.8497      1.00000
     54     -34.8485      1.00000
     55     -34.8473      1.00000
     56     -34.8469      1.00000
     57     -34.8462      1.00000
     58     -34.8449      1.00000
     59     -34.8445      1.00000
     60     -34.8409      1.00000
     61     -34.8374      1.00000
     62     -34.8303      1.00000
     63     -34.8201      1.00000
     64     -34.8162      1.00000
     65     -34.8151      1.00000
     66     -34.8099      1.00000
     67     -34.8035      1.00000
     68     -34.7981      1.00000
     69     -34.7973      1.00000
     70     -34.7943      1.00000
     71     -34.7915      1.00000
     72     -34.7892      1.00000
     73     -34.7868      1.00000
     74     -34.7858      1.00000
     75     -34.7817      1.00000
     76     -34.7686      1.00000
     77     -34.7474      1.00000
     78     -34.7461      1.00000
     79     -34.7442      1.00000
     80     -34.7425      1.00000
     81     -34.7422      1.00000
     82     -34.7373      1.00000
     83     -34.7344      1.00000
     84     -34.7322      1.00000
     85     -34.7319      1.00000
     86     -34.7304      1.00000
     87     -34.7301      1.00000
     88     -34.7286      1.00000
     89     -34.7262      1.00000
     90     -34.7261      1.00000
     91     -34.7258      1.00000
     92     -34.7237      1.00000
     93     -34.7226      1.00000
     94     -34.7217      1.00000
     95     -34.7187      1.00000
     96     -34.7155      1.00000
     97     -34.7147      1.00000
     98     -34.7126      1.00000
     99     -34.7115      1.00000
    100     -34.7079      1.00000
    101     -34.7075      1.00000
    102     -34.7071      1.00000
    103     -34.6993      1.00000
    104     -34.6989      1.00000
    105     -34.6958      1.00000
    106     -34.6946      1.00000
    107     -34.6919      1.00000
    108     -34.6918      1.00000
    109     -34.6898      1.00000
    110     -34.6879      1.00000
    111     -34.6828      1.00000
    112     -34.6794      1.00000
    113     -34.6769      1.00000
    114     -34.6768      1.00000
    115     -34.6730      1.00000
    116     -34.6712      1.00000
    117     -34.6710      1.00000
    118     -34.6696      1.00000
    119     -34.6681      1.00000
    120     -34.6648      1.00000
    121     -34.6582      1.00000
    122     -34.6566      1.00000
    123     -34.6551      1.00000
    124     -34.6534      1.00000
    125     -34.6525      1.00000
    126     -34.6488      1.00000
    127     -34.6477      1.00000
    128     -34.6423      1.00000
    129     -34.6404      1.00000
    130     -34.6344      1.00000
    131     -34.6315      1.00000
    132     -34.6297      1.00000
    133     -34.6242      1.00000
    134     -34.6217      1.00000
    135     -34.6170      1.00000
    136     -34.6165      1.00000
    137     -34.6110      1.00000
    138     -34.6081      1.00000
    139     -34.6063      1.00000
    140     -34.5993      1.00000
    141     -34.5989      1.00000
    142     -34.5957      1.00000
    143     -34.5909      1.00000
    144     -34.5878      1.00000
    145     -34.5869      1.00000
    146     -34.5859      1.00000
    147     -34.5825      1.00000
    148     -34.5771      1.00000
    149     -34.5742      1.00000
    150     -34.5737      1.00000
    151     -34.5635      1.00000
    152     -34.5580      1.00000
    153     -34.5471      1.00000
    154     -34.5436      1.00000
    155     -34.5432      1.00000
    156     -34.5393      1.00000
    157     -34.5361      1.00000
    158     -34.5331      1.00000
    159     -34.5328      1.00000
    160     -34.5320      1.00000
    161     -34.5304      1.00000
    162     -34.5201      1.00000
    163     -34.5173      1.00000
    164     -34.5146      1.00000
    165     -34.5140      1.00000
    166     -34.5006      1.00000
    167     -34.4958      1.00000
[...]
   81        1.574   3.462   0.000   5.036
   82        1.574   3.462   0.000   5.036
   83        1.574   3.461   0.000   5.035
   84        1.576   3.475   0.000   5.051
   85        1.575   3.463   0.000   5.038
   86        1.575   3.468   0.000   5.043
   87        1.575   3.468   0.000   5.043
   88        1.575   3.468   0.000   5.043
   89        1.575   3.463   0.000   5.038
   90        1.576   3.460   0.000   5.036
   91        1.575   3.462   0.000   5.036
   92        1.573   3.460   0.000   5.033
   93        1.577   3.474   0.000   5.051
   94        1.570   3.490   0.000   5.060
   95        1.577   3.479   0.000   5.055
   96        1.575   3.465   0.000   5.039
   97        1.575   3.466   0.000   5.041
   98        1.576   3.477   0.000   5.053
   99        1.575   3.464   0.000   5.038
  100        1.566   3.486   0.000   5.051
  101        1.575   3.459   0.000   5.033
  102        1.575   3.462   0.000   5.037
  103        1.576   3.461   0.000   5.037
  104        1.574   3.462   0.000   5.036
  105        1.577   3.472   0.000   5.049
  106        1.575   3.463   0.000   5.038
  107        1.575   3.462   0.000   5.037
  108        1.576   3.475   0.000   5.051
  109        1.575   3.464   0.000   5.039
  110        1.575   3.462   0.000   5.037
  111        1.576   3.473   0.000   5.049
  112        1.577   3.465   0.000   5.042
  113        1.576   3.474   0.000   5.051
  114        1.577   3.473   0.000   5.049
  115        1.574   3.465   0.000   5.039
  116        1.574   3.463   0.000   5.037
  117        1.575   3.461   0.000   5.036
  118        1.576   3.463   0.000   5.039
  119        1.576   3.476   0.000   5.053
  120        1.576   3.461   0.000   5.036
  121        1.570   3.465   0.000   5.035
  122        1.577   3.470   0.000   5.046
  123        1.577   3.474   0.000   5.051
  124        1.576   3.473   0.000   5.049
  125        1.576   3.475   0.000   5.051
  126        1.576   3.472   0.000   5.047
  127        1.575   3.459   0.000   5.034
  128        1.574   3.461   0.000   5.035
  129        1.576   3.472   0.000   5.048
  130        1.737   4.369   0.000   6.106
  131        1.737   4.370   0.000   6.107
  132        1.737   4.380   0.000   6.117
  133        1.739   4.385   0.000   6.123
  134        1.738   4.383   0.000   6.121
  135        1.737   4.367   0.000   6.103
  136        1.736   4.367   0.000   6.103
  137        1.739   4.380   0.000   6.119
  138        1.738   4.381   0.000   6.120
  139        1.739   4.384   0.000   6.123
  140        1.739   4.384   0.000   6.122
  141        1.738   4.381   0.000   6.119
  142        1.738   4.380   0.000   6.118
  143        1.738   4.385   0.000   6.122
  144        1.739   4.385   0.000   6.124
  145        1.738   4.384   0.000   6.123
  146        1.737   4.382   0.000   6.119
  147        1.737   4.369   0.000   6.106
  148        1.736   4.369   0.000   6.105
  149        1.739   4.384   0.000   6.123
  150        1.738   4.388   0.000   6.126
  151        1.737   4.384   0.000   6.121
  152        1.738   4.378   0.000   6.117
  153        1.737   4.382   0.000   6.119
  154        1.737   4.372   0.000   6.109
  155        1.737   4.373   0.000   6.110
  156        1.737   4.370   0.000   6.106
  157        1.737   4.367   0.000   6.104
  158        1.738   4.376   0.000   6.114
  159        1.738   4.376   0.000   6.114
  160        1.737   4.368   0.000   6.105
  161        1.736   4.370   0.000   6.107
  162        1.736   4.369   0.000   6.105
  163        1.736   4.367   0.000   6.104
  164        1.738   4.380   0.000   6.117
  165        1.737   4.372   0.000   6.110
  166        1.737   4.372   0.000   6.108
  167        1.737   4.370   0.000   6.106
  168        1.737   4.370   0.000   6.107
  169        1.738   4.378   0.000   6.116
  170        1.738   4.380   0.000   6.118
  171        1.737   4.371   0.000   6.108
  172        1.739   4.388   0.000   6.126
  173        1.737   4.371   0.000   6.108
  174        1.737   4.369   0.000   6.105
  175        1.738   4.385   0.000   6.123
  176        1.737   4.367   0.000   6.104
  177        1.738   4.380   0.000   6.117
  178        1.737   4.369   0.000   6.105
  179        1.738   4.377   0.000   6.115
  180        1.738   4.379   0.000   6.117
  181        1.737   4.370   0.000   6.106
  182        1.738   4.378   0.000   6.116
  183        1.737   4.369   0.000   6.105
  184        1.738   4.380   0.000   6.117
  185        1.738   4.384   0.000   6.121
  186        1.738   4.382   0.000   6.120
  187        1.737   4.371   0.000   6.108
  188        1.738   4.381   0.000   6.119
  189        1.738   4.382   0.000   6.120
  190        1.738   4.382   0.000   6.120
  191        1.739   4.387   0.000   6.126
  192        1.737   4.370   0.000   6.107
  193        1.739   4.389   0.000   6.128
  194        1.737   4.368   0.000   6.105
  195        1.737   4.370   0.000   6.107
  196        1.737   4.382   0.000   6.119
  197        1.737   4.371   0.000   6.108
  198        1.737   4.380   0.000   6.117
  199        1.738   4.382   0.000   6.120
  200        1.738   4.382   0.000   6.120
  201        1.738   4.381   0.000   6.119
  202        1.738   4.380   0.000   6.118
  203        1.738   4.383   0.000   6.121
  204        1.738   4.379   0.000   6.117
  205        1.737   4.380   0.000   6.117
  206        1.737   4.368   0.000   6.105
  207        1.737   4.378   0.000   6.115
  208        1.737   4.381   0.000   6.119
  209        1.738   4.380   0.000   6.117
  210        1.737   4.369   0.000   6.106
  211        1.737   4.371   0.000   6.108
  212        1.737   4.369   0.000   6.106
  213        1.739   4.375   0.000   6.113
  214        1.736   4.368   0.000   6.104
  215        1.738   4.380   0.000   6.119
  216        1.736   4.367   0.000   6.104
  217        1.737   4.366   0.000   6.103
  218        1.737   4.381   0.000   6.118
  219        1.738   4.380   0.000   6.119
  220        1.738   4.381   0.000   6.120
  221        1.738   4.381   0.000   6.119
  222        1.737   4.382   0.000   6.119
  223        1.738   4.381   0.000   6.118
  224        1.738   4.382   0.000   6.120
  225        1.738   4.382   0.000   6.120
  226        1.738   4.379   0.000   6.117
  227        1.737   4.379   0.000   6.117
  228        1.738   4.378   0.000   6.116
  229        1.738   4.378   0.000   6.116
  230        1.737   4.369   0.000   6.105
  231        1.737   4.378   0.000   6.115
  232        1.737   4.371   0.000   6.107
  233        1.738   4.381   0.000   6.119
  234        1.737   4.370   0.000   6.107
  235        1.737   4.370   0.000   6.107
  236        1.739   4.389   0.000   6.128
  237        1.739   4.388   0.000   6.127
  238        1.737   4.382   0.000   6.119
  239        1.738   4.379   0.000   6.117
  240        1.738   4.381   0.000   6.118
  241        1.738   4.378   0.000   6.116
  242        1.738   4.389   0.000   6.127
  243        1.738   4.387   0.000   6.125
  244        1.738   4.381   0.000   6.118
  245        1.738   4.378   0.000   6.116
  246        1.738   4.379   0.000   6.117
  247        1.739   4.388   0.000   6.126
  248        1.738   4.380   0.000   6.118
  249        1.738   4.387   0.000   6.124
  250        1.738   4.381   0.000   6.119
  251        1.738   4.380   0.000   6.118
  252        1.738   4.381   0.000   6.118
  253        1.738   4.379   0.000   6.117
  254        1.739   4.388   0.000   6.127
  255        1.738   4.379   0.000   6.117
  256        1.739   4.385   0.000   6.124
  257        1.738   4.379   0.000   6.118
--------------------------------------------------
tot        345.5731195.704 112.6031653.880
 


 magnetization (x)
 
# of ion       s       p       d       tot
------------------------------------------
    1       -0.000  -0.000   0.000  -0.000
    2       -0.000  -0.000  -0.000  -0.000
    3       -0.000  -0.000   0.000   0.000
    4       -0.000  -0.000  -0.000  -0.000
    5       -0.000  -0.000  -0.000  -0.000
    6        0.000   0.000   0.002   0.002
    7        0.000   0.000   0.001   0.001
    8        0.000   0.000   0.000   0.000
    9        0.000   0.000   0.002   0.002
   10       -0.000  -0.000  -0.000  -0.000
   11       -0.000  -0.000  -0.000  -0.000
   12       -0.000  -0.000  -0.000  -0.000
   13       -0.000  -0.000  -0.000  -0.000
   14        0.000   0.000   0.007   0.007
   15        0.000   0.000   0.000   0.000
   16       -0.000  -0.000   0.005   0.004
   17        0.000   0.000   0.000   0.000
   18       -0.000  -0.000  -0.000  -0.000
   19       -0.000  -0.000  -0.000  -0.000
   20       -0.000  -0.000  -0.000  -0.000
   21       -0.000  -0.000  -0.000  -0.000
   22        0.000   0.000   0.000   0.000
   23        0.000   0.000   0.000   0.000
   24       -0.000  -0.000   0.005   0.005
   25       -0.000  -0.000   0.006   0.006
   26       -0.000  -0.000  -0.000  -0.000
   27       -0.000  -0.000  -0.000  -0.000
   28       -0.000  -0.000  -0.000  -0.000
   29       -0.000  -0.000  -0.000  -0.000
   30       -0.000  -0.000   0.001   0.001
   31        0.000   0.000   0.000   0.000
   32        0.005   0.006   0.922   0.933
   33       -0.000  -0.000   0.000   0.000
   34       -0.000  -0.000  -0.000  -0.000
   35       -0.000  -0.000   0.000   0.000
   36       -0.000  -0.000  -0.000  -0.000
   37       -0.000  -0.000  -0.000  -0.000
   38       -0.000  -0.000   0.000   0.000
   39       -0.000  -0.000  -0.000  -0.000
   40       -0.000  -0.000  -0.000  -0.000
   41       -0.000  -0.000   0.000   0.000
   42       -0.000  -0.000   0.000   0.000
   43       -0.000  -0.000  -0.000  -0.000
   44       -0.000  -0.000   0.000   0.000
   45       -0.000  -0.000  -0.000  -0.000
   46       -0.000  -0.000  -0.000  -0.000
   47       -0.000  -0.000   0.000   0.000
   48        0.000   0.000   0.000   0.000
   49       -0.000  -0.000   0.000   0.000
   50       -0.000  -0.000  -0.000  -0.000
   51       -0.000  -0.000  -0.000  -0.000
   52       -0.000  -0.000   0.000   0.000
   53       -0.000  -0.000  -0.000  -0.000
   54        0.000  -0.000   0.000   0.000
   55       -0.000  -0.000  -0.000  -0.000
   56       -0.000  -0.000   0.000   0.000
   57       -0.000  -0.000  -0.000  -0.000
   58       -0.000  -0.000   0.000   0.000
   59       -0.000  -0.000   0.000  -0.000
   60       -0.000  -0.000   0.000  -0.000
   61       -0.000  -0.000   0.000   0.000
   62       -0.000  -0.000  -0.000  -0.000
   63       -0.000  -0.000  -0.000  -0.000
   64       -0.000  -0.000  -0.002  -0.003
   65        0.000   0.000   0.000   0.000
   66        0.000   0.000   0.000   0.000
   67        0.000  -0.000   0.000  -0.000
   68        0.000   0.000   0.000   0.000
   69       -0.000  -0.000   0.000  -0.000
   70        0.000  -0.000   0.000   0.000
   71        0.000  -0.000   0.000  -0.000
   72       -0.000  -0.000   0.000  -0.000
   73       -0.000  -0.000   0.000  -0.001
   74       -0.000   0.000   0.000   0.000
   75       -0.000  -0.000   0.000  -0.000
   76       -0.000  -0.000   0.000  -0.000
   77        0.000  -0.000   0.000  -0.000
   78       -0.000  -0.000   0.000  -0.000
   79       -0.000  -0.000   0.000  -0.000
   80       -0.000  -0.000   0.000  -0.000
   81       -0.000  -0.000   0.000  -0.000
   82       -0.000  -0.000   0.000  -0.000
   83        0.000   0.000   0.000   0.000
   84       -0.000  -0.000   0.000  -0.000
   85       -0.000  -0.000   0.000  -0.000
   86       -0.000  -0.000   0.000  -0.000
   87        0.000  -0.000   0.000  -0.000
   88       -0.000  -0.000   0.000  -0.000
   89       -0.000  -0.000   0.000  -0.000
   90       -0.000  -0.000   0.000  -0.000
   91       -0.000  -0.000   0.000  -0.000
   92       -0.000  -0.000   0.000  -0.000
   93       -0.000  -0.000   0.000  -0.000
   94       -0.000  -0.000   0.000  -0.000
   95       -0.000  -0.000   0.000  -0.000
   96        0.000   0.000   0.000   0.000
   97       -0.000  -0.000   0.000  -0.000
   98       -0.000  -0.000   0.000  -0.000
   99       -0.000  -0.000   0.000  -0.000
  100       -0.001  -0.014   0.000  -0.015
  101       -0.000  -0.000   0.000  -0.000
  102       -0.000  -0.000   0.000  -0.000
  103       -0.000  -0.000   0.000  -0.000
  104       -0.000  -0.000   0.000  -0.000
  105       -0.000  -0.000   0.000  -0.000
  106       -0.000  -0.000   0.000  -0.000
  107       -0.000  -0.000   0.000  -0.000
  108        0.000   0.000   0.000   0.000
  109       -0.000  -0.000   0.000  -0.000
  110        0.000  -0.000   0.000  -0.000
  111       -0.000  -0.000   0.000  -0.000
  112       -0.000  -0.000   0.000  -0.000
  113        0.000   0.000   0.000   0.000
  114       -0.000  -0.001   0.000  -0.001
  115       -0.000  -0.000   0.000  -0.000
  116       -0.000  -0.000   0.000  -0.000
  117        0.000   0.000   0.000   0.000
  118        0.000   0.000   0.000   0.000
  119        0.000   0.000   0.000   0.000
  120        0.000   0.000   0.000   0.000
  121       -0.000  -0.000   0.000  -0.000
  122       -0.000  -0.000   0.000  -0.000
  123       -0.000  -0.000   0.000  -0.000
  124       -0.000  -0.000   0.000  -0.000
  125        0.000   0.000   0.000   0.000
  126        0.000   0.000   0.000   0.000
  127       -0.000  -0.000   0.000  -0.000
  128       -0.000  -0.000   0.000  -0.000
  129       -0.000  -0.000   0.000  -0.000
  130       -0.000  -0.000   0.000  -0.000
  131        0.000   0.000   0.000   0.000
  132       -0.000  -0.000   0.000  -0.000
  133        0.000  -0.000   0.000  -0.000
  134        0.000   0.000   0.000   0.000
  135        0.000   0.000   0.000   0.000
  136       -0.000  -0.000   0.000  -0.000
  137       -0.000   0.000   0.000   0.000
  138       -0.000  -0.000   0.000  -0.000
  139       -0.000  -0.000   0.000  -0.000
  140       -0.000   0.000   0.000   0.000
  141        0.000   0.000   0.000   0.000
  142        0.000   0.000   0.000   0.000
  143       -0.000  -0.000   0.000  -0.000
  144       -0.000  -0.000   0.000  -0.000
  145       -0.000   0.002   0.000   0.002
  146        0.000   0.000   0.000   0.000
  147        0.000  -0.000   0.000  -0.000
  148        0.000  -0.000   0.000  -0.000
  149       -0.000  -0.000   0.000  -0.000
  150        0.000  -0.000   0.000  -0.000
  151       -0.000   0.003   0.000   0.002
  152       -0.000  -0.000   0.000  -0.000
  153       -0.000  -0.000   0.000  -0.000
  154       -0.000  -0.000   0.000  -0.000
  155        0.000   0.000   0.000   0.000
  156       -0.000  -0.000   0.000  -0.000
  157       -0.000  -0.000   0.000  -0.000
  158       -0.000  -0.000   0.000  -0.000
  159       -0.000  -0.000   0.000  -0.000
  160       -0.000  -0.000   0.000  -0.000
  161       -0.000  -0.000   0.000  -0.000
  162       -0.000  -0.000   0.000  -0.000
  163       -0.000  -0.000   0.000  -0.000
  164       -0.000   0.000   0.000   0.000
  165       -0.000  -0.000   0.000  -0.000
  166        0.000  -0.000   0.000  -0.000
  167        0.000   0.000   0.000   0.000
  168       -0.000   0.000   0.000   0.000
  169       -0.000  -0.000   0.000  -0.000
  170       -0.000  -0.000   0.000  -0.000
  171       -0.000  -0.000   0.000  -0.000
  172       -0.000  -0.000   0.000  -0.000
  173       -0.000  -0.000   0.000  -0.000
  174       -0.000  -0.000   0.000  -0.000
  175       -0.000  -0.000   0.000  -0.000
  176       -0.000  -0.000   0.000  -0.000
  177        0.000   0.000   0.000   0.000
  178       -0.000  -0.000   0.000  -0.000
  179        0.000  -0.000   0.000  -0.000
  180       -0.000  -0.000   0.000  -0.000
  181       -0.000  -0.000   0.000  -0.000
  182       -0.000  -0.000   0.000  -0.000
  183       -0.000  -0.000   0.000  -0.000
  184        0.000   0.000   0.000   0.000
  185       -0.000  -0.000   0.000  -0.000
  186       -0.000  -0.000   0.000  -0.000
  187        0.000  -0.000   0.000  -0.000
  188       -0.000  -0.000   0.000  -0.000
  189       -0.000  -0.000   0.000  -0.000
  190       -0.000  -0.000   0.000  -0.000
  191       -0.000  -0.000   0.000  -0.000
  192       -0.000  -0.000   0.000  -0.000
  193       -0.000  -0.000   0.000  -0.000
  194        0.000  -0.000   0.000  -0.000
  195       -0.000  -0.000   0.000  -0.000
  196       -0.000  -0.000   0.000  -0.000
  197       -0.000  -0.000   0.000  -0.000
  198        0.000   0.000   0.000   0.000
  199       -0.000  -0.000   0.000  -0.000
  200       -0.000  -0.000   0.000  -0.000
  201       -0.000  -0.000   0.000  -0.000
  202        0.000   0.000   0.000   0.000
  203       -0.000  -0.000   0.000  -0.000
  204       -0.000  -0.000   0.000  -0.000
  205       -0.000  -0.000   0.000  -0.000
  206       -0.000  -0.000   0.000  -0.000
  207       -0.000  -0.007   0.000  -0.007
  208       -0.000  -0.000   0.000  -0.000
  209       -0.000  -0.000   0.000  -0.000
  210        0.000   0.000   0.000   0.000
  211       -0.000  -0.000   0.000  -0.000
  212       -0.000   0.000   0.000   0.000
  213        0.000   0.000   0.000   0.000
  214       -0.000  -0.000   0.000  -0.000
  215        0.000   0.000   0.000   0.000
  216        0.000   0.000   0.000   0.000
  217        0.000   0.000   0.000   0.000
  218        0.000  -0.000   0.000  -0.000
  219       -0.000  -0.000   0.000  -0.000
  220        0.000  -0.000   0.000  -0.000
  221       -0.000   0.000   0.000   0.000
  222       -0.000   0.003   0.000   0.002
  223       -0.000   0.000   0.000   0.000
  224        0.000   0.000   0.000   0.000
  225        0.000   0.000   0.000   0.000
  226        0.000   0.000   0.000   0.000
  227        0.000  -0.000   0.000  -0.000
  228        0.000   0.000   0.000   0.000
  229       -0.000  -0.000   0.000  -0.000
  230        0.000   0.000   0.000   0.000
  231       -0.000   0.002   0.000   0.001
  232        0.000  -0.000   0.000  -0.000
  233       -0.000  -0.000   0.000  -0.000
  234        0.000  -0.000   0.000  -0.000
  235       -0.000  -0.000   0.000  -0.000
  236       -0.000  -0.000   0.000  -0.000
  237       -0.000  -0.000   0.000  -0.000
  238       -0.000  -0.000   0.000  -0.000
  239       -0.000  -0.000   0.000  -0.000
  240        0.000  -0.000   0.000   0.000
  241       -0.000  -0.000   0.000  -0.000
  242       -0.000  -0.000   0.000  -0.000
  243        0.000  -0.000   0.000  -0.000
  244       -0.000  -0.000   0.000  -0.000
  245        0.000  -0.000   0.000  -0.000
  246       -0.000  -0.000   0.000  -0.000
  247       -0.000  -0.000   0.000  -0.000
  248       -0.000  -0.000   0.000  -0.000
  249       -0.000  -0.000   0.000  -0.000
  250        0.000   0.000   0.000   0.000
  251        0.000   0.000   0.000   0.000
  252        0.000  -0.000   0.000  -0.000
  253       -0.000   0.000   0.000   0.000
  254       -0.000  -0.000   0.000  -0.000
  255       -0.000  -0.000   0.000  -0.000
  256       -0.000  -0.000   0.000  -0.000
  257       -0.000   0.000   0.000   0.000
--------------------------------------------------
tot          0.002  -0.010   0.948   0.940
 

 total amount of memory used by VASP MPI-rank0   291466. kBytes
=======================================================================

   base      :      30000. kBytes
   nonlr-proj:      49431. kBytes
   fftplans  :      27976. kBytes
   grid      :      34041. kBytes
   one-center:       1026. kBytes
   wavefun   :     148992. kBytes
 
  
  
 General timing and accounting informations for this job:
 ========================================================
  
                  Total CPU time used (sec):      806.634
                            User time (sec):      473.668
                          System time (sec):      332.966
                         Elapsed time (sec):      841.480
  
                   Maximum memory used (kb):      623916.
                   Average memory used (kb):           0.
  
                          Minor page faults:        79585
                          Major page faults:            0
                 Voluntary context switches:        15781
