 vasp.6.3.0 20Jan22 (build Jan 25 2022 13:20:17) complex                        
  
 executed on             LinuxIFC date 2024.06.12  12:43:17
 running on   80 total cores
 distrk:  each k-point on   80 cores,    1 groups
 distr:  one band on NCORE=   8 cores,   10 groups


--------------------------------------------------------------------------------------------------------


 INCAR:
   SYSTEM = LTO
   ISTART = 1
   ENCUT = 700.0
   IALGO = 38
   EDIFF = 1E-6
   PREC = Accurate
   ISPIN = 2
   LMAXMIX = 4
   ADDGRID = .TRUE.
   LASPH = .TRUE.
   LREAL = Auto
   ROPT = 1E-4 1E-4 1E-4
   GGA = PS
   LDAU = .TRUE.
   LDAUTYPE = 2
   LDAUL = 2   -1    -1
   LDAUU = 4.2  0.0  0.0
   LDAUJ = 0.0  0.0  0.0
   NSW = 100
   EDIFFG = -0.01
   IBRION = 1
   ISIF = 3
   ISMEAR = 0
   SIGMA = 0.01
   ISYM = 0
   LORBIT = 11
   NEDOS = 3001
   NWRITE = 2
   NCORE = 8

 POTCAR:   PAW_PBE Ti_pv 07Sep2000                
 POTCAR:   PAW_PBE O 08Apr2002                    
 POTCAR:    PAW_PBE F 08Apr2002                   
 -----------------------------------------------------------------------------
|                                                                             |
|           W    W    AA    RRRRR   N    N  II  N    N   GGGG   !!!           |
|           W    W   A  A   R    R  NN   N  II  NN   N  G    G  !!!           |
|           W    W  A    A  R    R  N N  N  II  N N  N  G       !!!           |
|           W WW W  AAAAAA  RRRRR   N  N N  II  N  N N  G  GGG   !            |
|           WW  WW  A    A  R   R   N   NN  II  N   NN  G    G                |
|           W    W  A    A  R    R  N    N  II  N    N   GGGG   !!!           |
|                                                                             |
|     You use a magnetic or noncollinear calculation, but did not specify     |
|     the initial magnetic moment with the MAGMOM tag. Note that a            |
|     default of 1 will be used for all atoms. This ferromagnetic setup       |
|     may break the symmetry of the crystal, in particular it may rule        |
|     out finding an antiferromagnetic solution. Thence, we recommend         |
|     setting the initial magnetic moment manually or verifying carefully     |
|     that this magnetic setup is desired.                                    |
|                                                                             |
 -----------------------------------------------------------------------------

 POTCAR:   PAW_PBE Ti_pv 07Sep2000                
   VRHFIN =Ti: d3 s1                                                                                
   LEXCH  = PE                                                                                      
   EATOM  =  1042.3781 eV,   76.6126 Ry                                                             
                                                                                                    
   TITEL  = PAW_PBE Ti_pv 07Sep2000                                                                 
   LULTRA =        F    use ultrasoft PP ?                                                          
   IUNSCR =        1    unscreen: 0-lin 1-nonlin 2-no                                               
   RPACOR =    2.200    partial core radius                                                         
   POMASS =   47.880; ZVAL   =   10.000    mass and valenz                                          
   RCORE  =    2.500    outmost cutoff radius                                                       
   RWIGS  =    2.500; RWIGS  =    1.323    wigner-seitz radius (au A)                               
   ENMAX  =  222.338; ENMIN  =  166.753 eV                                                          
   RCLOC  =    1.701    cutoff for local pot                                                        
   LCOR   =        T    correct aug charges                                                         
   LPAW   =        T    paw PP                                                                      
   EAUG   =  482.848                                                                                
   DEXC   =    -.008                                                                                
   RMAX   =    3.092    core radius for proj-oper                                                   
   RAUG   =    1.300    factor for augmentation sphere                                              
   RDEP   =    2.538    radius for radial grids                                                     
   QCUT   =   -4.042; QGAM   =    8.085    optimization parameters                                  
                                                                                                    
   Description                                                                                      
     l     E      TYP  RCUT    TYP  RCUT                                                            
     1   .000     23  2.300                                                                         
     1  -.100     23  2.300                                                                         
     2   .000     23  2.500                                                                         
     2   .000     23  2.500                                                                         
     0   .000     23  2.500                                                                         
     0  1.500     23  2.500                                                                         
     3   .000      7   .000                                                                         
  local pseudopotential read in
  partial core-charges read in
  atomic valenz-charges read in
  non local Contribution for L=           1  read in
    real space projection operators read in
  non local Contribution for L=           1  read in
    real space projection operators read in
  non local Contribution for L=           2  read in
    real space projection operators read in
  non local Contribution for L=           2  read in
    real space projection operators read in
  non local Contribution for L=           0  read in
    real space projection operators read in
  non local Contribution for L=           0  read in
    real space projection operators read in
    PAW grid and wavefunctions read in
 
   number of l-projection  operators is LMAX  =           6
   number of lm-projection operators is LMMAX =          18
 
 POTCAR:   PAW_PBE O 08Apr2002                    
   VRHFIN =O: s2p4                                                                                  
   LEXCH  = PE                                                                                      
   EATOM  =   432.3788 eV,   31.7789 Ry                                                             
                                                                                                    
   TITEL  = PAW_PBE O 08Apr2002                                                                     
   LULTRA =        F    use ultrasoft PP ?                                                          
   IUNSCR =        0    unscreen: 0-lin 1-nonlin 2-no                                               
   RPACOR =     .000    partial core radius                                                         
   POMASS =   16.000; ZVAL   =    6.000    mass and valenz                                          
   RCORE  =    1.520    outmost cutoff radius                                                       
   RWIGS  =    1.550; RWIGS  =     .820    wigner-seitz radius (au A)                               
   ENMAX  =  400.000; ENMIN  =  300.000 eV                                                          
   ICORE  =        2    local potential                                                             
   LCOR   =        T    correct aug charges                                                         
   LPAW   =        T    paw PP                                                                      
   EAUG   =  605.392                                                                                
   DEXC   =     .000                                                                                
   RMAX   =    2.264    core radius for proj-oper                                                   
   RAUG   =    1.300    factor for augmentation sphere                                              
   RDEP   =    1.550    radius for radial grids                                                     
   QCUT   =   -5.520; QGAM   =   11.041    optimization parameters                                  
                                                                                                    
   Description                                                                                      
     l     E      TYP  RCUT    TYP  RCUT                                                            
     0   .000     23  1.200                                                                         
     0  -.700     23  1.200                                                                         
     1   .000     23  1.520                                                                         
     1   .600     23  1.520                                                                         
     2   .000      7  1.500                                                                         
  local pseudopotential read in
  atomic valenz-charges read in
  non local Contribution for L=           0  read in
    real space projection operators read in
  non local Contribution for L=           0  read in
    real space projection operators read in
  non local Contribution for L=           1  read in
    real space projection operators read in
  non local Contribution for L=           1  read in
    real space projection operators read in
    PAW grid and wavefunctions read in
 
   number of l-projection  operators is LMAX  =           4
   number of lm-projection operators is LMMAX =           8
 
 POTCAR:    PAW_PBE F 08Apr2002                   
   VRHFIN =F: s2p5                                                                                  
   LEXCH  = PE                                                                                      
   EATOM  =   659.6475 eV,   48.4827 Ry                                                             
                                                                                                    
   TITEL  = PAW_PBE F 08Apr2002                                                                     
   LULTRA =        F    use ultrasoft PP ?                                                          
   IUNSCR =        1    unscreen: 0-lin 1-nonlin 2-no                                               
   RPACOR =    1.200    partial core radius                                                         
   POMASS =   18.998; ZVAL   =    7.000    mass and valenz                                          
   RCORE  =    1.520    outmost cutoff radius                                                       
   RWIGS  =    1.500; RWIGS  =    0.794    wigner-seitz radius (au A)                               
   ENMAX  =  400.000; ENMIN  =  300.000 eV                                                          
   ICORE  =        2    local potential                                                             
   LCOR   =        T    correct aug charges                                                         
   LPAW   =        T    paw PP                                                                      
   EAUG   =  613.614                                                                                
   RMAX   =    1.555    core radius for proj-oper                                                   
   RAUG   =    1.300    factor for augmentation sphere                                              
   RDEP   =    1.539    radius for radial grids                                                     
   RDEPT  =    1.299    core radius for aug-charge                                                  
                                                                                                    
   Atomic configuration                                                                             
    4 entries                                                                                       
     n  l   j            E        occ.                                                              
     1  0  0.50      -663.3661   2.0000                                                             
     2  0  0.50       -29.8995   2.0000                                                             
     2  1  0.50       -11.1114   5.0000                                                             
     3  2  1.50       -10.8847   0.0000                                                             
   Description                                                                                      
     l       E           TYP  RCUT    TYP  RCUT                                                     
     0    -29.8995018     23  1.200                                                                 
     0     -9.5240782     23  1.200                                                                 
     1    -11.1113914     23  1.520                                                                 
     1      1.3605826     23  1.520                                                                 
     2    -10.8846608      7  1.500                                                                 
  local pseudopotential read in
  partial core-charges read in
  partial kinetic energy density read in
  atomic valenz-charges read in
  non local Contribution for L=           0  read in
    real space projection operators read in
  non local Contribution for L=           0  read in
    real space projection operators read in
  non local Contribution for L=           1  read in
    real space projection operators read in
  non local Contribution for L=           1  read in
    real space projection operators read in
    PAW grid and wavefunctions read in
 
   number of l-projection  operators is LMAX  =           4
   number of lm-projection operators is LMMAX =           8
 
 Optimization of the real space projectors (new method)

 maximal supplied QI-value         = 15.12
 optimisation between [QCUT,QGAM] = [ 13.45, 27.06] = [ 50.69,205.06] Ry 
 Optimized for a Real-space Cutoff    1.49 Angstroem

   l    n(q)    QCUT    max X(q) W(low)/X(q) W(high)/X(q)  e(spline) 
   1     12    13.455     4.841    0.13E-05    0.83E-06    0.56E-07
   1     12    13.455     5.701    0.32E-04    0.25E-04    0.17E-06
   2     11    13.455     4.569    0.64E-05    0.34E-05    0.50E-07
   2     11    13.455    32.276    0.49E-04    0.38E-04    0.46E-06
   0     12    13.455    30.046    0.17E-04    0.41E-05    0.51E-07
   0     12    13.455    45.433    0.12E-04    0.27E-04    0.38E-06
 Optimization of the real space projectors (new method)

 maximal supplied QI-value         = 24.76
 optimisation between [QCUT,QGAM] = [ 13.37, 26.98] = [ 50.04,203.89] Ry 
 Optimized for a Real-space Cutoff    1.17 Angstroem

   l    n(q)    QCUT    max X(q) W(low)/X(q) W(high)/X(q)  e(spline) 
   0      9    13.368     4.192    0.20E-04    0.58E-05    0.56E-07
   0      9    13.368     8.473    0.60E-04    0.52E-04    0.21E-06
   1      9    13.368     2.474    0.22E-04    0.17E-04    0.28E-07
   1      9    13.368     3.912    0.94E-04    0.97E-04    0.20E-06
 Optimization of the real space projectors (new method)

 maximal supplied QI-value         = 24.76
 optimisation between [QCUT,QGAM] = [ 13.37, 26.98] = [ 50.04,203.89] Ry 
 Optimized for a Real-space Cutoff    1.17 Angstroem

   l    n(q)    QCUT    max X(q) W(low)/X(q) W(high)/X(q)  e(spline) 
   0      9    13.368    14.049    0.39E-04    0.34E-04    0.16E-06
   0      9    13.368     8.945    0.54E-04    0.47E-04    0.20E-06
   1      9    13.368     7.086    0.99E-04    0.10E-03    0.23E-06
   1      9    13.368     6.747    0.86E-04    0.89E-04    0.21E-06
 -----------------------------------------------------------------------------
|                                                                             |
|               ----> ADVICE to this user running VASP <----                  |
|                                                                             |
|     You enforced a specific xc type in the INCAR file but a different       |
|     type was found in the POTCAR file.                                      |
|     I HOPE YOU KNOW WHAT YOU ARE DOING!                                     |
|                                                                             |
 -----------------------------------------------------------------------------

 PAW_PBE Ti_pv 07Sep2000                :
 energy of atom  1       EATOM=-1042.3781
 kinetic energy error for atom=    0.0006 (will be added to EATOM!!)
 PAW_PBE O 08Apr2002                    :
 energy of atom  2       EATOM= -432.3788
 kinetic energy error for atom=    0.0091 (will be added to EATOM!!)
  PAW_PBE F 08Apr2002                   :
 energy of atom  3       EATOM= -659.6475
 kinetic energy error for atom=    0.0140 (will be added to EATOM!!)
 
 
 POSCAR: Ti27 O27 F54
  positions in direct lattice
  velocities in cartesian coordinates
 exchange correlation table for  LEXCH =       14
   RHO(1)=    0.500       N(1)  =     2000
   RHO(2)=  100.500       N(2)  =     4000
 


--------------------------------------------------------------------------------------------------------


 ion  position               nearest neighbor table
   1  0.010  0.988  0.001-  28 1.80  37 1.84  92 1.94  91 1.95  84 2.06  55 2.11
   2  0.011  0.991  0.343-  46 1.82  38 1.83  29 1.88  56 2.07  91 2.07  85 2.11
   3  0.008  0.989  0.657-  30 1.83  46 1.84  39 1.87  86 2.07  92 2.08  57 2.10
   4  0.999  0.333  0.012-  47 1.79  55 1.91  58 1.91  73 1.93  87 1.93  94 2.06
   5  0.988  0.334  0.326-  44 1.80  47 1.85  56 1.92  59 1.92  93 2.02  74 2.12
   6  0.014  0.333  0.667-  40 1.75  57 1.91  60 1.92  94 1.95  93 1.96  88 2.10
   7  0.993  0.676  0.990-  48 1.81  28 1.85  45 1.88  75 2.06  58 2.07  95 2.08
   8  0.011  0.678  0.333-  29 1.79  41 1.82  95 1.94  96 1.94  59 2.09  89 2.14
   9  0.008  0.677  0.675-  30 1.82  48 1.85  42 1.86  96 2.07  90 2.08  60 2.10
  10  0.324  0.012  0.000-  31 1.81  37 1.82  98 1.95  97 1.95  76 2.06  65 2.09
  11  0.322  0.991  0.342-  38 1.81  49 1.84  33 1.85  97 2.04  77 2.11  61 2.11
  12  0.322  0.000  0.656-  39 1.80  49 1.82  62 1.96  66 1.96  98 2.08  78 2.10
  13  0.342  0.325  0.989-  50 1.81  31 1.84  43 1.86  63 2.05  73 2.06  99 2.12
  14  0.333  0.334  0.333- 100 1.89  99 1.89  64 1.89  61 1.89  74 1.91  79 1.91
  15  0.327  0.344  0.678-  50 1.81  32 1.81  40 1.91  80 2.04  62 2.05 100 2.13
  16  0.335  0.666  0.988-  51 1.76  65 1.93  75 1.94  81 1.94  63 1.94 101 2.08
  17  0.322  0.680  0.333-  33 1.78  41 1.81 101 1.93 102 1.94  82 2.11  64 2.14
  18  0.322  0.657  0.671-  42 1.81  32 1.85  51 1.92 102 2.03  66 2.05  83 2.10
  19  0.666  0.010  0.991-  52 1.82  34 1.83  84 1.94  76 1.94  71 2.06 103 2.07
  20  0.666  0.014  0.332-  35 1.77  77 1.91  85 1.91 103 1.92 104 1.92  72 2.14
  21  0.667  0.989  0.677-  52 1.82  36 1.82  78 1.93  86 1.93  67 2.08 104 2.08
  22  0.654  0.325  0.999-  43 1.79  34 1.84 106 1.96 105 1.97  68 2.04  87 2.09
  23  0.676  0.326  0.339-  44 1.82  35 1.86  53 1.87 105 2.00  69 2.05  79 2.08
  24  0.667  0.333  0.654-  53 1.79  88 1.92  80 1.92  67 1.92  70 1.93 106 2.05
  25  0.679  0.667  0.991-  45 1.78  54 1.83  71 1.95  68 1.95  81 2.08 107 2.10
  26  0.666  0.667  0.334- 108 1.88  89 1.89 107 1.89  82 1.89  72 1.90  69 1.91
  27  0.667  0.677  0.678-  54 1.80  36 1.82  83 1.93  90 1.93  70 2.07 108 2.12
  28  0.001  0.834  0.005-   1 1.80   7 1.85
  29  0.995  0.831  0.328-   8 1.79   2 1.88
  30  0.991  0.833  0.667-   9 1.82   3 1.83
  31  0.336  0.167  0.002-  10 1.81  13 1.84
  32  0.337  0.499  0.657-  15 1.81  18 1.85
  33  0.337  0.832  0.329-  17 1.78  11 1.85
  34  0.666  0.167  0.005-  19 1.83  22 1.84
  35  0.663  0.167  0.326-  20 1.77  23 1.86
  36  0.671  0.833  0.658-  21 1.82  27 1.82
  37  0.167  0.002  1.000-  10 1.82   1 1.84
  38  0.167  0.004  0.324-  11 1.81   2 1.83
  39  0.168  0.001  0.675-  12 1.80   3 1.87
  40  0.165  0.330  0.662-   6 1.75  15 1.91
  41  0.168  0.663  0.338-  17 1.81   8 1.82
  42  0.167  0.667  0.658-  18 1.81   9 1.86
  43  0.501  0.339  0.004-  22 1.79  13 1.86
  44  0.832  0.337  0.333-   5 1.80  23 1.82
  45  0.832  0.665  0.006-  25 1.78   7 1.88
  46  1.000  0.004  0.499-   2 1.82   3 1.84
  47  0.003  0.333  0.167-   4 1.79   5 1.85
  48  0.001  0.662  0.834-   7 1.81   9 1.85
  49  0.334  0.005  0.499-  12 1.82  11 1.84
  50  0.332  0.339  0.834-  13 1.81  15 1.81
  51  0.335  0.665  0.836-  16 1.76  18 1.92
  52  0.667  0.997  0.834-  19 1.82  21 1.82
  53  0.662  0.335  0.499-  24 1.79  23 1.87
  54  0.665  0.670  0.834-  27 1.80  25 1.83
  55  0.994  0.170  0.995-   4 1.91   1 2.11
  56  0.997  0.169  0.333-   5 1.92   2 2.07
  57  0.993  0.169  0.672-   6 1.91   3 2.10
  58  0.005  0.498  0.000-   4 1.91   7 2.07
  59  0.002  0.498  0.339-   5 1.92   8 2.09
  60  0.995  0.497  0.662-   6 1.92   9 2.10
  61  0.341  0.171  0.325-  14 1.89  11 2.11
  62  0.340  0.168  0.670-  12 1.96  15 2.05
  63  0.327  0.500  0.009-  16 1.94  13 2.05
  64  0.337  0.496  0.340-  14 1.89  17 2.14
  65  0.335  0.832  0.007-  16 1.93  10 2.09
  66  0.342  0.833  0.665-  12 1.96  18 2.05
  67  0.667  0.168  0.666-  24 1.92  21 2.08
  68  0.668  0.500  0.002-  25 1.95  22 2.04
  69  0.661  0.502  0.330-  26 1.91  23 2.05
  70  0.663  0.499  0.667-  24 1.93  27 2.07
  71  0.664  0.834  0.008-  25 1.95  19 2.06
  72  0.668  0.830  0.340-  26 1.90  20 2.14
  73  0.164  0.332  0.999-   4 1.93  13 2.06
  74  0.170  0.332  0.342-  14 1.91   5 2.12
  75  0.169  0.666  0.010-  16 1.94   7 2.06
  76  0.501  0.993  0.004-  19 1.94  10 2.06
  77  0.503  0.998  0.332-  20 1.91  11 2.11
  78  0.502  0.004  0.664-  21 1.93  12 2.10
  79  0.498  0.338  0.324-  14 1.91  23 2.08
  80  0.502  0.329  0.669-  24 1.92  15 2.04
  81  0.501  0.663  0.007-  16 1.94  25 2.08
  82  0.503  0.663  0.334-  26 1.89  17 2.11
  83  0.502  0.667  0.660-  27 1.93  18 2.10
  84  0.832  0.999  0.005-  19 1.94   1 2.06
  85  0.830  0.001  0.331-  20 1.91   2 2.11
  86  0.831  0.010  0.664-  21 1.93   3 2.07
  87  0.833  0.339  0.999-   4 1.93  22 2.09
  88  0.832  0.335  0.666-  24 1.92   6 2.10
  89  0.828  0.659  0.329-  26 1.89   8 2.14
  90  0.831  0.655  0.662-  27 1.93   9 2.08
  91  0.992  0.012  0.166-   1 1.95   2 2.07
  92  0.990  0.005  0.835-   1 1.94   3 2.08
  93  0.997  0.329  0.499-   6 1.96   5 2.02
  94  0.998  0.337  0.835-   6 1.95   4 2.06
  95  1.000  0.653  0.168-   8 1.94   7 2.08
  96  0.988  0.661  0.498-   8 1.94   9 2.07
  97  0.343  0.002  0.167-  10 1.95  11 2.04
  98  0.344  0.995  0.834-  10 1.95  12 2.08
  99  0.323  0.340  0.171-  14 1.89  13 2.12
 100  0.343  0.323  0.496-  14 1.89  15 2.13
 101  0.339  0.658  0.168-  17 1.93  16 2.08
 102  0.345  0.669  0.498-  17 1.94  18 2.03
 103  0.666  0.990  0.168-  20 1.92  19 2.07
 104  0.667  0.005  0.498-  20 1.92  21 2.08
 105  0.669  0.343  0.168-  22 1.97  23 2.00
 106  0.669  0.335  0.831-  22 1.96  24 2.05
 107  0.661  0.669  0.171-  26 1.89  25 2.10
 108  0.668  0.658  0.496-  26 1.88  27 2.12
 

IMPORTANT INFORMATION: All symmetrisations will be switched off!
NOSYMM: (Re-)initialisation of all symmetry stuff for point group C_1.


----------------------------------------------------------------------------------------

                                     Primitive cell                                     

  volume of cell :    1560.6451

  direct lattice vectors                    reciprocal lattice vectors
    11.608355290 -0.000500500  0.001487298     0.086144849  0.000003780 -0.000011085
    -0.000510341 11.604276988 -0.008914204     0.000003707  0.086175174  0.000066303
     0.001491134 -0.008913941 11.585522604    -0.000011056  0.000066305  0.086314674

  length of vectors
    11.608355396 11.604280423 11.585526129     0.086144850  0.086175200  0.086314700

  position of ions in fractional coordinates (direct lattice)
     0.009641048  0.988398248  0.000672012
     0.010650415  0.991456109  0.342823022
     0.008380410  0.989372262  0.657166391
     0.999010409  0.333385758  0.012068334
     0.987555353  0.333711831  0.325844679
     0.013686606  0.332628993  0.667499486
     0.992500362  0.675545955  0.989556594
     0.011282508  0.678028340  0.332942394
     0.008469376  0.677062320  0.675204513
     0.323994859  0.011750884  0.000050356
     0.321696370  0.990902507  0.341546250
     0.321878396  0.000320356  0.656185004
     0.341742090  0.325055426  0.989193154
     0.333375661  0.333685374  0.333337262
     0.327477852  0.343989386  0.677704293
     0.334549445  0.666218687  0.988117489
     0.322441545  0.679996046  0.332574711
     0.322143288  0.656772757  0.671146690
     0.666345336  0.010072762  0.990581550
     0.666101573  0.014360111  0.332464002
     0.667132915  0.989204621  0.677064188
     0.653828069  0.324650362  0.999150817
     0.676067784  0.326151392  0.339123773
     0.667495314  0.333473333  0.653840357
     0.679353880  0.667394907  0.990629077
     0.666178263  0.666826078  0.333814846
     0.666763800  0.677409033  0.678373569
     0.001376982  0.833898127  0.005256410
     0.995281929  0.831064132  0.328046964
     0.991392832  0.833147993  0.666570540
     0.336279910  0.167247048  0.001988503
     0.337254594  0.498598697  0.657394169
     0.337199614  0.832258265  0.329298786
     0.666128757  0.167077819  0.004748248
     0.662909515  0.167113797  0.326382255
     0.671481068  0.833205422  0.658075000
     0.167121782  0.002241901  0.999519052
     0.167067179  0.004473908  0.324274896
     0.167809817  0.000559449  0.674777530
     0.164704505  0.330110279  0.662080179
     0.167638024  0.662723535  0.337677427
     0.167311157  0.667436132  0.658487388
     0.500631174  0.339284116  0.004000495
     0.832373461  0.337284340  0.333416506
     0.831850341  0.665240903  0.005528834
     0.999971869  0.003921029  0.498918229
     0.003030611  0.333207973  0.166778543
     0.001366461  0.661990243  0.834025610
     0.333591046  0.004563948  0.499230013
     0.331992813  0.339053321  0.833933052
     0.334761132  0.664591827  0.836318198
     0.666895868  0.997471988  0.834054918
     0.662145334  0.335276501  0.499494948
     0.664591960  0.670092676  0.833587602
     0.993682789  0.169586465  0.995144221
     0.997332775  0.169006774  0.333030606
     0.992558110  0.169045948  0.672453992
     0.004802612  0.497714836  0.000444307
     0.001910283  0.497883771  0.338693608
     0.995290584  0.496653894  0.661686395
     0.341296305  0.171193837  0.324598758
     0.339570538  0.168112565  0.669660428
     0.327229997  0.500060461  0.008610529
     0.336847207  0.496344830  0.340165187
     0.335497146  0.831771401  0.006851524
     0.342278831  0.832570276  0.665491118
     0.667451415  0.168070517  0.666071980
     0.667966266  0.499883067  0.002049648
     0.660888459  0.502237982  0.329704669
     0.662824168  0.499065868  0.667012487
     0.664313445  0.833798925  0.008120480
     0.667873326  0.830165783  0.339804526
     0.164374907  0.331578687  0.998927414
     0.169512554  0.331823845  0.342457444
     0.168769901  0.666111200  0.009756204
     0.500661323  0.993450341  0.003690247
     0.502792703  0.997582255  0.332060715
     0.502307145  0.003583074  0.664484045
     0.497782870  0.338367227  0.323788808
     0.502496561  0.328664863  0.669083873
     0.500913416  0.663069036  0.007087363
     0.503452443  0.663081715  0.334068847
     0.502219904  0.666540397  0.660426215
     0.832240563  0.999027080  0.004711063
     0.829835843  0.000546219  0.331115258
     0.831281414  0.010015579  0.664349528
     0.833414446  0.339085370  0.999313749
     0.832443925  0.334797712  0.666183431
     0.828407946  0.658851258  0.328603463
     0.830874482  0.655149578  0.661511699
     0.991654967  0.012191540  0.166269728
     0.989735264  0.004922116  0.834864477
     0.997470290  0.328663457  0.499481994
     0.998196497  0.337344548  0.834727034
     0.999917692  0.653279236  0.167859661
     0.988405039  0.660958538  0.497964517
     0.342987402  0.001797570  0.166953745
     0.344402724  0.995262529  0.833872294
     0.322707909  0.339592661  0.170780579
     0.342510084  0.323332206  0.495669977
     0.339150488  0.658337067  0.167834236
     0.345181377  0.668851687  0.497952258
     0.666183848  0.990106157  0.168473018
     0.666639999  0.004993535  0.498097779
     0.669091076  0.342623164  0.167630815
     0.669134618  0.335005444  0.830664217
     0.661297148  0.668842889  0.170894604
     0.668034314  0.658443809  0.496256135

  ion indices of the primitive-cell ions
   primitive index   ion index
                 1           1
                 2           2
                 3           3
                 4           4
                 5           5
                 6           6
                 7           7
                 8           8
                 9           9
                10          10
                11          11
                12          12
                13          13
                14          14
                15          15
                16          16
                17          17
                18          18
                19          19
                20          20
                21          21
                22          22
                23          23
                24          24
                25          25
                26          26
                27          27
                28          28
                29          29
                30          30
                31          31
                32          32
                33          33
                34          34
                35          35
                36          36
                37          37
                38          38
                39          39
                40          40
                41          41
                42          42
                43          43
                44          44
                45          45
                46          46
                47          47
                48          48
                49          49
                50          50
                51          51
                52          52
                53          53
                54          54
                55          55
                56          56
                57          57
                58          58
                59          59
                60          60
                61          61
                62          62
                63          63
                64          64
                65          65
                66          66
                67          67
                68          68
                69          69
                70          70
                71          71
                72          72
                73          73
                74          74
                75          75
                76          76
                77          77
                78          78
                79          79
                80          80
                81          81
                82          82
                83          83
                84          84
                85          85
                86          86
                87          87
                88          88
                89          89
                90          90
                91          91
                92          92
                93          93
                94          94
                95          95
                96          96
                97          97
                98          98
                99          99
               100         100
               101         101
               102         102
               103         103
               104         104
               105         105
               106         106
               107         107
               108         108

----------------------------------------------------------------------------------------

 
 
 KPOINTS: Title                                   

Automatic generation of k-mesh.
 Grid dimensions read from file:
 generate k-points for:    3    3    3

 Generating k-lattice:

  Cartesian coordinates                     Fractional coordinates (reciprocal lattice)
     0.028714950  0.000001260 -0.000003695     0.333333333 -0.000000000 -0.000000000
     0.000001236  0.028725058  0.000022101     0.000000000  0.333333333  0.000000000
    -0.000003685  0.000022102  0.028771558     0.000000000 -0.000000000  0.333333333

  Length of vectors
     0.028714950  0.028725067  0.028771567

  Shift w.r.t. Gamma in fractional coordinates (k-lattice)
     0.000000000  0.000000000  0.000000000

 
 Subroutine IBZKPT returns following result:
 ===========================================
 
 Found     14 irreducible k-points:
 
 Following reciprocal coordinates:
            Coordinates               Weight
  0.000000  0.000000  0.000000      1.000000
  0.333333 -0.000000 -0.000000      2.000000
 -0.000000  0.333333 -0.000000      2.000000
  0.333333  0.333333  0.000000      2.000000
 -0.333333  0.333333  0.000000      2.000000
  0.000000  0.000000  0.333333      2.000000
  0.333333  0.000000  0.333333      2.000000
 -0.333333  0.000000  0.333333      2.000000
 -0.000000  0.333333  0.333333      2.000000
  0.333333  0.333333  0.333333      2.000000
 -0.333333  0.333333  0.333333      2.000000
  0.000000 -0.333333  0.333333      2.000000
  0.333333 -0.333333  0.333333      2.000000
 -0.333333 -0.333333  0.333333      2.000000
 
 Following cartesian coordinates:
            Coordinates               Weight
  0.000000  0.000000  0.000000      1.000000
  0.028715  0.000001 -0.000004      2.000000
  0.000001  0.028725  0.000022      2.000000
  0.028716  0.028726  0.000018      2.000000
 -0.028714  0.028724  0.000026      2.000000
 -0.000004  0.000022  0.028772      2.000000
  0.028711  0.000023  0.028768      2.000000
 -0.028719  0.000021  0.028775      2.000000
 -0.000002  0.028747  0.028794      2.000000
  0.028713  0.028748  0.028790      2.000000
 -0.028717  0.028746  0.028797      2.000000
 -0.000005 -0.028703  0.028749      2.000000
  0.028710 -0.028702  0.028746      2.000000
 -0.028720 -0.028704  0.028753      2.000000
 


--------------------------------------------------------------------------------------------------------




 Dimension of arrays:
   k-points           NKPTS =     14   k-points in BZ     NKDIM =     14   number of bands    NBANDS=    540
   number of dos      NEDOS =   3001   number of ions     NIONS =    108
   non local maximal  LDIM  =      6   non local SUM 2l+1 LMDIM =     18
   total plane-waves  NPLWV = ******
   max r-space proj   IRMAX =   8891   max aug-charges    IRDMAX= 199193
   dimension x,y,z NGX =   100 NGY =  100 NGZ =  100
   dimension x,y,z NGXF=   200 NGYF=  200 NGZF=  200
   support grid    NGXF=   400 NGYF=  400 NGZF=  400
   ions per type =              27  27  54
   NGX,Y,Z   is equivalent  to a cutoff of  14.32, 14.33, 14.35 a.u.
   NGXF,Y,Z  is equivalent  to a cutoff of  28.64, 28.65, 28.70 a.u.

 SYSTEM =  LTO                                     
 POSCAR =  Ti27 O27 F54                            

 Startparameter for this run:
   NWRITE =      2    write-flag & timer
   PREC   = accura    normal or accurate (medium, high low for compatibility)
   ISTART =      0    job   : 0-new  1-cont  2-samecut
   ICHARG =      2    charge: 1-file 2-atom 10-const
   ISPIN  =      2    spin polarized calculation?
   LNONCOLLINEAR =      F non collinear calculations
   LSORBIT =      F    spin-orbit coupling
   INIWAV =      1    electr: 0-lowe 1-rand  2-diag
   LASPH  =      T    aspherical Exc in radial PAW
 Electronic Relaxation 1
   ENCUT  =  700.0 eV  51.45 Ry    7.17 a.u.  25.04 25.03 24.99*2*pi/ulx,y,z
   ENINI  =  700.0     initial cutoff
   ENAUG  =  613.6 eV  augmentation charge cutoff
   NELM   =     60;   NELMIN=  2; NELMDL=  0     # of ELM steps 
   EDIFF  = 0.1E-05   stopping-criterion for ELM
   LREAL  =      T    real-space projection
   NLSPLINE    = F    spline interpolate recip. space projectors
   LCOMPAT=      F    compatible to vasp.4.4
   GGA_COMPAT  = T    GGA compatible to vasp.4.4-vasp.4.6
   LMAXPAW     = -100 max onsite density
   LMAXMIX     =    4 max onsite mixed and CHGCAR
   VOSKOWN=      0    Vosko Wilk Nusair interpolation
   ROPT   =   -0.00010  -0.00010  -0.00010
 Ionic relaxation
   EDIFFG = -.1E-01   stopping-criterion for IOM
   NSW    =    100    number of steps for IOM
   NBLOCK =      1;   KBLOCK =    100    inner block; outer block 
   IBRION =      1    ionic relax: 0-MD 1-quasi-New 2-CG
   NFREE  =      0    steps in history (QN), initial steepest desc. (CG)
   ISIF   =      3    stress and relaxation
   IWAVPR =     11    prediction:  0-non 1-charg 2-wave 3-comb
   ISYM   =      0    0-nonsym 1-usesym 2-fastsym
   LCORR  =      T    Harris-Foulkes like correction to forces

   POTIM  = 0.5000    time-step for ionic-motion
   TEIN   =    0.0    initial temperature
   TEBEG  =    0.0;   TEEND  =   0.0 temperature during run
   SMASS  =  -3.00    Nose mass-parameter (am)
   estimated Nose-frequenzy (Omega)   =  0.10E-29 period in steps = 0.13E+47 mass=  -0.308E-26a.u.
   SCALEE = 1.0000    scale energy and forces
   NPACO  =    256;   APACO  = 10.0  distance and # of slots for P.C.
   PSTRESS=    0.0 pullay stress

  Mass of Ions in am
   POMASS =  47.88 16.00 19.00
  Ionic Valenz
   ZVAL   =  10.00  6.00  7.00
  Atomic Wigner-Seitz radii
   RWIGS  =  -1.00 -1.00 -1.00
  virtual crystal weights 
   VCA    =   1.00  1.00  1.00
   NELECT =     810.0000    total number of electrons
   NUPDOWN=      -1.0000    fix difference up-down

 DOS related values:
   EMIN   =  10.00;   EMAX   =-10.00  energy-range for DOS
   EFERMI =   0.00
   ISMEAR =     0;   SIGMA  =   0.01  broadening in eV -4-tet -1-fermi 0-gaus

 Electronic relaxation 2 (details)
   IALGO  =     38    algorithm
   LDIAG  =      T    sub-space diagonalisation (order eigenvalues)
   LSUBROT=      F    optimize rotation matrix (better conditioning)
   TURBO    =      0    0=normal 1=particle mesh
   IRESTART =      0    0=no restart 2=restart with 2 vectors
   NREBOOT  =      0    no. of reboots
   NMIN     =      0    reboot dimension
   EREF     =   0.00    reference energy to select bands
   IMIX   =      4    mixing-type and parameters
     AMIX     =   0.40;   BMIX     =  1.00
     AMIX_MAG =   1.60;   BMIX_MAG =  1.00
     AMIN     =   0.10
     WC   =   100.;   INIMIX=   1;  MIXPRE=   1;  MAXMIX= -45

 Intra band minimization:
   WEIMIN = 0.0010     energy-eigenvalue tresh-hold
   EBREAK =  0.46E-09  absolut break condition
   DEPER  =   0.30     relativ break condition  

   TIME   =   0.40     timestep for ELM

  volume/ion in A,a.u.               =      14.45        97.52
  Fermi-wavevector in a.u.,A,eV,Ry     =   1.315634  2.486188 23.550230  1.730893
  Thomas-Fermi vector in A             =   2.445803
 
 Write flags
   LWAVE        =      T    write WAVECAR
   LDOWNSAMPLE  =      F    k-point downsampling of WAVECAR
   LCHARG       =      T    write CHGCAR
   LVTOT        =      F    write LOCPOT, total local potential
   LVHAR        =      F    write LOCPOT, Hartree potential only
   LELF         =      F    write electronic localiz. function (ELF)
   LORBIT       =     11    0 simple, 1 ext, 2 COOP (PROOUT), +10 PAW based schemes


 Dipole corrections
   LMONO  =      F    monopole corrections only (constant potential shift)
   LDIPOL =      F    correct potential (dipole corrections)
   IDIPOL =      0    1-x, 2-y, 3-z, 4-all directions 
   EPSILON=  1.0000000 bulk dielectric constant

 LDA+U is selected, type is set to LDAUTYPE =  2
   angular momentum for each species LDAUL =     2   -1   -1
   U (eV)           for each species LDAUU =   4.2  0.0  0.0
   J (eV)           for each species LDAUJ =   0.0  0.0  0.0
 Exchange correlation treatment:
   GGA     =    PS    GGA type
   LEXCH   =    14    internal setting for exchange type
   LIBXC   =     F    Libxc                    
   VOSKOWN =     0    Vosko Wilk Nusair interpolation
   LHFCALC =     F    Hartree Fock is set to
   LHFONE  =     F    Hartree Fock one center treatment
   AEXX    =    0.0000 exact exchange contribution

 Linear response parameters
   LEPSILON=     F    determine dielectric tensor
   LRPA    =     F    only Hartree local field effects (RPA)
   LNABLA  =     F    use nabla operator in PAW spheres
   LVEL    =     F    velocity operator in full k-point grid
   CSHIFT  =0.1000    complex shift for real part using Kramers Kronig
   OMEGAMAX=  -1.0    maximum frequency
   DEG_THRESHOLD= 0.2000000E-02 threshold for treating states as degnerate
   RTIME   =   -0.100 relaxation time in fs
  (WPLASMAI=    0.000 imaginary part of plasma frequency in eV, 0.658/RTIME)
   DFIELD  = 0.0000000 0.0000000 0.0000000 field for delta impulse in time
 
  Optional k-point grid parameters
   LKPOINTS_OPT  =     F    use optional k-point grid
   KPOINTS_OPT_MODE=     1    mode for optional k-point grid
 
 Orbital magnetization related:
   ORBITALMAG=     F  switch on orbital magnetization
   LCHIMAG   =     F  perturbation theory with respect to B field
   DQ        =  0.001000  dq finite difference perturbation B field
   LLRAUG    =     F  two centre corrections for induced B field



--------------------------------------------------------------------------------------------------------


 quasi-Newton-method for relaxation of ions
 charge density and potential will be updated during run
 spin polarized calculation
 Variant of blocked Davidson
 Davidson routine will perform the subspace rotation
 perform sub-space diagonalisation
    after iterative eigenvector-optimisation
 modified Broyden-mixing scheme, WC =      100.0
 initial mixing is a Kerker type mixing with AMIX =  0.4000 and BMIX =      1.0000
 Hartree-type preconditioning will be used
 using additional bands          135
 real space projection scheme for non local part
 use partial core corrections
 calculate Harris-corrections to forces 
   (improved forces if not selfconsistent)
 use gradient corrections 
 use of overlap-Matrix (Vanderbilt PP)
 Gauss-broadening in eV      SIGMA  =   0.01


--------------------------------------------------------------------------------------------------------


  energy-cutoff  :      700.00
  volume of cell :     1560.65
      direct lattice vectors                 reciprocal lattice vectors
    11.608355290 -0.000500500  0.001487298     0.086144849  0.000003780 -0.000011085
    -0.000510341 11.604276988 -0.008914204     0.000003707  0.086175174  0.000066303
     0.001491134 -0.008913941 11.585522604    -0.000011056  0.000066305  0.086314674

  length of vectors
    11.608355396 11.604280423 11.585526129     0.086144850  0.086175200  0.086314700


 
 k-points in units of 2pi/SCALE and weight: Title                                   
   0.00000000  0.00000000  0.00000000       0.037
   0.02871495  0.00000126 -0.00000369       0.074
   0.00000124  0.02872506  0.00002210       0.074
   0.02871619  0.02872632  0.00001841       0.074
  -0.02871371  0.02872380  0.00002580       0.074
  -0.00000369  0.00002210  0.02877156       0.074
   0.02871126  0.00002336  0.02876786       0.074
  -0.02871864  0.00002084  0.02877525       0.074
  -0.00000245  0.02874716  0.02879366       0.074
   0.02871250  0.02874842  0.02878996       0.074
  -0.02871740  0.02874590  0.02879735       0.074
  -0.00000492 -0.02870296  0.02874946       0.074
   0.02871003 -0.02870170  0.02874576       0.074
  -0.02871987 -0.02870422  0.02875315       0.074
 
 k-points in reciprocal lattice and weights: Title                                   
   0.00000000  0.00000000  0.00000000       0.037
   0.33333333 -0.00000000 -0.00000000       0.074
  -0.00000000  0.33333333 -0.00000000       0.074
   0.33333333  0.33333333  0.00000000       0.074
  -0.33333333  0.33333333  0.00000000       0.074
   0.00000000  0.00000000  0.33333333       0.074
   0.33333333  0.00000000  0.33333333       0.074
  -0.33333333  0.00000000  0.33333333       0.074
  -0.00000000  0.33333333  0.33333333       0.074
   0.33333333  0.33333333  0.33333333       0.074
  -0.33333333  0.33333333  0.33333333       0.074
   0.00000000 -0.33333333  0.33333333       0.074
   0.33333333 -0.33333333  0.33333333       0.074
  -0.33333333 -0.33333333  0.33333333       0.074
 
 position of ions in fractional coordinates (direct lattice) 
   0.00964105  0.98839825  0.00067201
   0.01065041  0.99145611  0.34282302
   0.00838041  0.98937226  0.65716639
   0.99901041  0.33338576  0.01206833
   0.98755535  0.33371183  0.32584468
   0.01368661  0.33262899  0.66749949
   0.99250036  0.67554596  0.98955659
   0.01128251  0.67802834  0.33294239
   0.00846938  0.67706232  0.67520451
   0.32399486  0.01175088  0.00005036
   0.32169637  0.99090251  0.34154625
   0.32187840  0.00032036  0.65618500
   0.34174209  0.32505543  0.98919315
   0.33337566  0.33368537  0.33333726
   0.32747785  0.34398939  0.67770429
   0.33454944  0.66621869  0.98811749
   0.32244155  0.67999605  0.33257471
   0.32214329  0.65677276  0.67114669
   0.66634534  0.01007276  0.99058155
   0.66610157  0.01436011  0.33246400
   0.66713292  0.98920462  0.67706419
   0.65382807  0.32465036  0.99915082
   0.67606778  0.32615139  0.33912377
   0.66749531  0.33347333  0.65384036
   0.67935388  0.66739491  0.99062908
   0.66617826  0.66682608  0.33381485
   0.66676380  0.67740903  0.67837357
   0.00137698  0.83389813  0.00525641
   0.99528193  0.83106413  0.32804696
   0.99139283  0.83314799  0.66657054
   0.33627991  0.16724705  0.00198850
   0.33725459  0.49859870  0.65739417
   0.33719961  0.83225826  0.32929879
   0.66612876  0.16707782  0.00474825
   0.66290951  0.16711380  0.32638225
   0.67148107  0.83320542  0.65807500
   0.16712178  0.00224190  0.99951905
   0.16706718  0.00447391  0.32427490
   0.16780982  0.00055945  0.67477753
   0.16470450  0.33011028  0.66208018
   0.16763802  0.66272354  0.33767743
   0.16731116  0.66743613  0.65848739
   0.50063117  0.33928412  0.00400050
   0.83237346  0.33728434  0.33341651
   0.83185034  0.66524090  0.00552883
   0.99997187  0.00392103  0.49891823
   0.00303061  0.33320797  0.16677854
   0.00136646  0.66199024  0.83402561
   0.33359105  0.00456395  0.49923001
   0.33199281  0.33905332  0.83393305
   0.33476113  0.66459183  0.83631820
   0.66689587  0.99747199  0.83405492
   0.66214533  0.33527650  0.49949495
   0.66459196  0.67009268  0.83358760
   0.99368279  0.16958647  0.99514422
   0.99733278  0.16900677  0.33303061
   0.99255811  0.16904595  0.67245399
   0.00480261  0.49771484  0.00044431
   0.00191028  0.49788377  0.33869361
   0.99529058  0.49665389  0.66168639
   0.34129630  0.17119384  0.32459876
   0.33957054  0.16811257  0.66966043
   0.32723000  0.50006046  0.00861053
   0.33684721  0.49634483  0.34016519
   0.33549715  0.83177140  0.00685152
   0.34227883  0.83257028  0.66549112
   0.66745141  0.16807052  0.66607198
   0.66796627  0.49988307  0.00204965
   0.66088846  0.50223798  0.32970467
   0.66282417  0.49906587  0.66701249
   0.66431345  0.83379893  0.00812048
   0.66787333  0.83016578  0.33980453
   0.16437491  0.33157869  0.99892741
   0.16951255  0.33182385  0.34245744
   0.16876990  0.66611120  0.00975620
   0.50066132  0.99345034  0.00369025
   0.50279270  0.99758225  0.33206072
   0.50230715  0.00358307  0.66448404
   0.49778287  0.33836723  0.32378881
   0.50249656  0.32866486  0.66908387
   0.50091342  0.66306904  0.00708736
   0.50345244  0.66308171  0.33406885
   0.50221990  0.66654040  0.66042622
   0.83224056  0.99902708  0.00471106
   0.82983584  0.00054622  0.33111526
   0.83128141  0.01001558  0.66434953
   0.83341445  0.33908537  0.99931375
   0.83244392  0.33479771  0.66618343
   0.82840795  0.65885126  0.32860346
   0.83087448  0.65514958  0.66151170
   0.99165497  0.01219154  0.16626973
   0.98973526  0.00492212  0.83486448
   0.99747029  0.32866346  0.49948199
   0.99819650  0.33734455  0.83472703
   0.99991769  0.65327924  0.16785966
   0.98840504  0.66095854  0.49796452
   0.34298740  0.00179757  0.16695374
   0.34440272  0.99526253  0.83387229
   0.32270791  0.33959266  0.17078058
   0.34251008  0.32333221  0.49566998
   0.33915049  0.65833707  0.16783424
   0.34518138  0.66885169  0.49795226
   0.66618385  0.99010616  0.16847302
   0.66664000  0.00499353  0.49809778
   0.66909108  0.34262316  0.16763082
   0.66913462  0.33500544  0.83066422
   0.66129715  0.66884289  0.17089460
   0.66803431  0.65844381  0.49625613
 
 position of ions in cartesian coordinates  (Angst):
   0.11141330 11.46963623 -0.00101084
   0.12363901 11.50207008  3.96296167
   0.09775779 11.47508764  7.60480908
  11.59671562  3.86809309  0.13833192
  11.46420898  3.86908569  3.77357491
   0.15970456  3.85396207  7.73038561
  11.52242764  7.82990479 11.45998448
   0.13112179  7.86505519  3.85128433
   0.09897681  7.85079573  7.81657427
   3.76104151  0.13619790  0.00096053
   3.73436935 11.49550162  3.94863715
   3.73745707 -0.00229280  7.60272207
   3.96837273  3.76304455 11.45793031
   3.87026987  3.86903931  3.85940767
   3.80231425  3.98554320  7.84897908
   3.88470223  7.72201071 11.44241627
   3.74316490  7.88773654  3.84746977
   3.74021933  7.61522920  7.77020966
   7.73664536  0.10772363 11.47730620
   7.73283214  0.16334176  3.85263189
   7.74482067 11.47263521  7.83631670
   7.59119271  3.75809912 11.57376281
   7.84837427  3.78138979  3.92702427
   7.74932753  3.86355455  7.57310234
   7.88731777  7.73546493 11.47201667
   7.73339141  7.73472549  3.86246602
   7.74069692  7.85446136  7.85426543
   0.01556676  9.67673730  0.05346677
  11.55365128  9.64047605  3.79466752
  11.50900899  9.66164212  7.71661571
   3.90357429  1.94059504  0.02204713
   3.91569696  5.77984862  7.61231199
   3.91439921  9.65465131  3.80818112
   7.73258109  1.93844157  0.05451230
   7.69569057  1.93599365  3.78080525
   7.79534687  9.66254439  7.61771412
   1.94149829  0.01702234 11.58017915
   1.93985643  0.04894228  3.75710274
   1.94900188  0.00039308  7.81789492
   1.91276719  3.82470693  7.66784717
   1.94616705  7.68733353  3.90651114
   1.94284862  7.73916030  7.62321970
   5.81133735  3.93686063  0.04406797
   9.66281190  3.91055225  3.86103583
   9.65608305  7.71917408  0.05936155
  11.60877069  0.04055289  5.78168073
   0.03525905  3.86514944  1.92925080
   0.01676817  7.67448301  9.65672348
   3.87318547  0.04834425  5.78429607
   3.85496100  3.92686885  9.65902160
   3.88693405  7.70448520  9.68375697
   7.74229882 11.56717274  9.65506231
   7.68699199  3.88585751  5.78490610
   7.71572061  7.76817784  9.65256310
  11.53642021  1.95856032 11.52923204
  11.57780354  1.95773364  3.85831039
  11.52288363  1.95516501  7.79070024
   0.05549708  5.77561445  0.00071795
   0.02242619  5.77456113  3.91950705
  11.55441991  5.75691298  7.66303570
   3.96228542  1.98351643  3.75962780
   3.94276821  1.94468550  7.75737248
   3.79835971  5.80259956  0.09578652
   3.91049598  5.75652208  3.93706794
   3.89415580  9.65187674  0.07246289
   3.97386172  9.65527264  7.70314976
   7.74892059  1.94406545  7.71628647
   7.75373768  5.80042898  0.02028365
   7.67206336  5.82483892  3.81630678
   7.69503835  5.78502111  7.72422529
   7.71117309  9.67522881  0.08763538
   7.75299388  9.63011043  3.93040607
   1.90944264  3.83874428 11.57038485
   1.96810325  3.84743832  3.96484263
   1.95881558  7.72956743  0.10734388
   5.81135302 11.52798946  0.03464225
   5.83658237 11.57300919  3.83895207
   5.83194881  0.03540441  7.69911006
   5.77875054  3.92337165  3.74898663
   5.83398857  3.80770243  7.74950391
   5.81445308  7.69412287  0.07694508
   5.84441457  7.69135404  3.86520011
   5.83059171  7.72858103  7.64618812
   9.66044132 11.59252843  0.04691238
   9.63352276  0.00297161  3.83737265
   9.65079553  0.10988552  7.69798355
   9.67588805  3.92551561 11.57578889
   9.66412734  3.87873043  7.71633683
   9.61660752  7.64214872  3.80240181
   9.64573824  7.59622464  7.65935436
  11.51172489  0.13949557  1.92768790
  11.49044097  0.04918030  9.67376943
  11.57956658  3.80895021  5.78531369
  11.58849211  3.90669927  9.66922638
  11.60731674  7.57883646  1.94040561
  11.47416208  7.66501243  5.76475731
   3.98176765  0.01919962  1.93474048
   3.99868468 11.54169660  9.65248657
   3.74618941  3.93904346  1.97603502
   3.97655285  3.74744668  5.74022288
   3.93689365  7.63785987  1.93908320
   4.00738924  7.75692876  5.76358825
   7.73304472 11.48763090  1.94401276
   7.73933414  0.05317269  5.77167005
   7.76712204  3.97406496  1.94003152
   7.76862005  3.87975658  9.62168795
   7.67648574  7.75958382  1.97492464
   7.75518361  7.63600640  5.74451073
 


--------------------------------------------------------------------------------------------------------


 k-point   1 :   0.0000 0.0000 0.0000  plane waves:   65549
 k-point   2 :   0.3333-0.0000-0.0000  plane waves:   65613
 k-point   3 :  -0.0000 0.3333-0.0000  plane waves:   65595
 k-point   4 :   0.3333 0.3333 0.0000  plane waves:   65599
 k-point   5 :  -0.3333 0.3333 0.0000  plane waves:   65604
 k-point   6 :   0.0000 0.0000 0.3333  plane waves:   65597
 k-point   7 :   0.3333 0.0000 0.3333  plane waves:   65601
 k-point   8 :  -0.3333 0.0000 0.3333  plane waves:   65605
 k-point   9 :  -0.0000 0.3333 0.3333  plane waves:   65611
 k-point  10 :   0.3333 0.3333 0.3333  plane waves:   65646
 k-point  11 :  -0.3333 0.3333 0.3333  plane waves:   65658
 k-point  12 :   0.0000-0.3333 0.3333  plane waves:   65605
 k-point  13 :   0.3333-0.3333 0.3333  plane waves:   65638
 k-point  14 :  -0.3333-0.3333 0.3333  plane waves:   65637

 maximum and minimum number of plane-waves per node :      8246     8141

 maximum number of plane-waves:     65658
 maximum index in each direction: 
   IXMAX=   25   IYMAX=   25   IZMAX=   24
   IXMIN=  -25   IYMIN=  -25   IZMIN=  -25


 real space projection operators:
  total allocation   :      53937.36 KBytes
  max/ min on nodes  :       7346.25       6149.66


 parallel 3D FFT for wavefunctions:
    minimum data exchange during FFTs selected (reduces bandwidth)
 parallel 3D FFT for charge:
    minimum data exchange during FFTs selected (reduces bandwidth)


 total amount of memory used by VASP MPI-rank0   298825. kBytes
=======================================================================

   base      :      30000. kBytes
   nonlr-proj:      25217. kBytes
   fftplans  :      18873. kBytes
   grid      :      21088. kBytes
   one-center:        435. kBytes
   wavefun   :     203212. kBytes
 
     INWAV:  cpu time      0.0001: real time      0.0002
 Broyden mixing: mesh for mixing (old mesh)
   NGX = 51   NGY = 51   NGZ = 49
  (NGX  =200   NGY  =200   NGZ  =200)
  gives a total of 127449 points

 initial charge density was supplied:
 charge density of overlapping atoms calculated
 number of electron     810.0000000 magnetization     108.0000000
 keeping initial charge density in first step


--------------------------------------------------------------------------------------------------------


 Maximum index for non-local projection operator         1365
 Maximum index for augmentation-charges         4043 (set IRDMAX)


--------------------------------------------------------------------------------------------------------


 First call to EWALD:  gamma=   0.153
 Maximum number of real-space cells 3x 3x 3
 Maximum number of reciprocal cells 3x 3x 3

    FEWALD:  cpu time      0.0048: real time      0.0048


--------------------------------------- Iteration      1(   1)  ---------------------------------------


    POTLOK:  cpu time      0.1613: real time      0.1704
    SETDIJ:  cpu time      0.8942: real time      0.8966
     EDDAV:  cpu time     90.6507: real time     90.8804
       DOS:  cpu time      0.0096: real time      0.0097
    --------------------------------------------
      LOOP:  cpu time     91.7158: real time     91.9572

 eigenvalue-minimisations  : 30240
 total energy-change (2. order) : 0.1319104E+05  (-0.4641339E+05)
 number of electron     810.0000000 magnetization     108.0000000
 augmentation part      810.0000000 magnetization     108.0000000

 Free energy of the ion-electron system (eV)
  ---------------------------------------------------
  alpha Z        PSCENC =      2555.74497435
  Ewald energy   TEWEN  =    -43204.66451634
  -Hartree energ DENC   =    -27788.21117324
  -exchange      EXHF   =         0.00000000
  -V(xc)+E(xc)   XCENC  =      3762.22627386
  PAW double counting   =     55010.87535266   -55252.78449702
  entropy T*S    EENTRO =        -0.00203819
  eigenvalues    EBANDS =      2837.41575434
  atomic energy  EATOM  =     75270.44210491
  Solvation  Ediel_sol  =         0.00000000
  ---------------------------------------------------
  free energy    TOTEN  =     13191.04223531 eV

  energy without entropy =    13191.04427350  energy(sigma->0) =    13191.04325441


--------------------------------------------------------------------------------------------------------




--------------------------------------- Iteration      1(   2)  ---------------------------------------


     EDDAV:  cpu time     90.4990: real time     90.8013
       DOS:  cpu time      0.0130: real time      0.0130
    --------------------------------------------
      LOOP:  cpu time     90.5119: real time     90.8143

 eigenvalue-minimisations  : 30270
 total energy-change (2. order) :-0.1154533E+05  (-0.1080756E+05)
 number of electron     810.0000000 magnetization     108.0000000
 augmentation part      810.0000000 magnetization     108.0000000

 Free energy of the ion-electron system (eV)
  ---------------------------------------------------
  alpha Z        PSCENC =      2555.74497435
  Ewald energy   TEWEN  =    -43204.66451634
  -Hartree energ DENC   =    -27788.21117324
  -exchange      EXHF   =         0.00000000
  -V(xc)+E(xc)   XCENC  =      3762.22627386
  PAW double counting   =     55010.87535266   -55252.78449702
  entropy T*S    EENTRO =        -0.00162339
  eigenvalues    EBANDS =     -8707.91360964
  atomic energy  EATOM  =     75270.44210491
  Solvation  Ediel_sol  =         0.00000000
  ---------------------------------------------------
  free energy    TOTEN  =      1645.71328613 eV

  energy without entropy =     1645.71490952  energy(sigma->0) =     1645.71409783


--------------------------------------------------------------------------------------------------------




--------------------------------------- Iteration      1(   3)  ---------------------------------------


     EDDAV:  cpu time     95.9318: real time     96.3515
       DOS:  cpu time      0.0116: real time      0.0116
    --------------------------------------------
      LOOP:  cpu time     95.9434: real time     96.3631

 eigenvalue-minimisations  : 32440
 total energy-change (2. order) :-0.2415660E+04  (-0.2268680E+04)
 number of electron     810.0000000 magnetization     108.0000000
 augmentation part      810.0000000 magnetization     108.0000000

 Free energy of the ion-electron system (eV)
  ---------------------------------------------------
  alpha Z        PSCENC =      2555.74497435
  Ewald energy   TEWEN  =    -43204.66451634
  -Hartree energ DENC   =    -27788.21117324
  -exchange      EXHF   =         0.00000000
  -V(xc)+E(xc)   XCENC  =      3762.22627386
  PAW double counting   =     55010.87535266   -55252.78449702
  entropy T*S    EENTRO =        -0.00000000
  eigenvalues    EBANDS =    -11123.57521680
  atomic energy  EATOM  =     75270.44210491
  Solvation  Ediel_sol  =         0.00000000
  ---------------------------------------------------
  free energy    TOTEN  =      -769.94669763 eV

  energy without entropy =     -769.94669763  energy(sigma->0) =     -769.94669763


--------------------------------------------------------------------------------------------------------




--------------------------------------- Iteration      1(   4)  ---------------------------------------


     EDDAV:  cpu time    107.7221: real time    108.1872
       DOS:  cpu time      0.0098: real time      0.0098
    --------------------------------------------
      LOOP:  cpu time    107.7320: real time    108.1970

 eigenvalue-minimisations  : 37400
 total energy-change (2. order) :-0.1532256E+03  (-0.1515498E+03)
 number of electron     810.0000000 magnetization     108.0000000
 augmentation part      810.0000000 magnetization     108.0000000

 Free energy of the ion-electron system (eV)
  ---------------------------------------------------
  alpha Z        PSCENC =      2555.74497435
  Ewald energy   TEWEN  =    -43204.66451634
  -Hartree energ DENC   =    -27788.21117324
  -exchange      EXHF   =         0.00000000
  -V(xc)+E(xc)   XCENC  =      3762.22627386
  PAW double counting   =     55010.87535266   -55252.78449702
  entropy T*S    EENTRO =        -0.00000000
  eigenvalues    EBANDS =    -11276.80085482
  atomic energy  EATOM  =     75270.44210491
  Solvation  Ediel_sol  =         0.00000000
  ---------------------------------------------------
  free energy    TOTEN  =      -923.17233566 eV

  energy without entropy =     -923.17233566  energy(sigma->0) =     -923.17233566


--------------------------------------------------------------------------------------------------------




--------------------------------------- Iteration      1(   5)  ---------------------------------------


     EDDAV:  cpu time    109.8007: real time    110.0844
       DOS:  cpu time      0.0086: real time      0.0086
    CHARGE:  cpu time      3.9917: real time      4.0016
    MIXING:  cpu time      0.0060: real time      0.0061
    --------------------------------------------
      LOOP:  cpu time    113.8070: real time    114.1007

 eigenvalue-minimisations  : 38460
 total energy-change (2. order) :-0.4909177E+01  (-0.4888398E+01)
 number of electron     810.0000010 magnetization      68.8461251
 augmentation part      205.6166298 magnetization      70.5920672

 Broyden mixing:
  rms(total) = 0.10946E+02    rms(broyden)= 0.10945E+02
  rms(prec ) = 0.13036E+02
  weight for this iteration     100.00

 Free energy of the ion-electron system (eV)
  ---------------------------------------------------
  alpha Z        PSCENC =      2555.74497435
  Ewald energy   TEWEN  =    -43204.66451634
  -Hartree energ DENC   =    -27788.21117324
  -exchange      EXHF   =         0.00000000
  -V(xc)+E(xc)   XCENC  =      3762.22627386
  PAW double counting   =     55010.87535266   -55252.78449702
  entropy T*S    EENTRO =        -0.00000000
  eigenvalues    EBANDS =    -11281.71003164
  atomic energy  EATOM  =     75270.44210491
  Solvation  Ediel_sol  =         0.00000000
  ---------------------------------------------------
  free energy    TOTEN  =      -928.08151248 eV

  energy without entropy =     -928.08151248  energy(sigma->0) =     -928.08151248


--------------------------------------------------------------------------------------------------------




--------------------------------------- Iteration      1(   6)  ---------------------------------------


    POTLOK:  cpu time      0.1648: real time      0.1694
    SETDIJ:  cpu time      0.8957: real time      0.8979
     EDDAV:  cpu time    114.0534: real time    114.3417
       DOS:  cpu time      0.0169: real time      0.0169
    CHARGE:  cpu time      3.9889: real time      3.9989
    MIXING:  cpu time      0.0048: real time      0.0048
    --------------------------------------------
      LOOP:  cpu time    119.1245: real time    119.4297

 eigenvalue-minimisations  : 40460
 total energy-change (2. order) : 0.4228644E+03  (-0.1149863E+03)
 number of electron     810.0000010 magnetization      47.1435993
 augmentation part      211.6833040 magnetization      41.7243837

 Broyden mixing:
  rms(total) = 0.32754E+01    rms(broyden)= 0.32747E+01
  rms(prec ) = 0.35744E+01
  weight for this iteration     100.00

 eigenvalues of (default mixing * dielectric matrix)
  average eigenvalue GAMMA=   0.8702
  0.8702

 Free energy of the ion-electron system (eV)
  ---------------------------------------------------
  alpha Z        PSCENC =      2555.74497435
  Ewald energy   TEWEN  =    -43204.66451634
  -Hartree energ DENC   =    -28195.91766797
  -exchange      EXHF   =         0.00000000
  -V(xc)+E(xc)   XCENC  =      3909.58316669
  PAW double counting   =     57656.57986700   -58029.54636092
  entropy T*S    EENTRO =        -0.00000000
  eigenvalues    EBANDS =    -10467.43872077
  atomic energy  EATOM  =     75270.44210491
  Solvation  Ediel_sol  =         0.00000000
  ---------------------------------------------------
  free energy    TOTEN  =      -505.21715306 eV

  energy without entropy =     -505.21715306  energy(sigma->0) =     -505.21715306


--------------------------------------------------------------------------------------------------------




--------------------------------------- Iteration      1(   7)  ---------------------------------------


    POTLOK:  cpu time      0.2051: real time      0.3107
    SETDIJ:  cpu time      0.8998: real time      0.9020
     EDDAV:  cpu time    109.8905: real time    110.1680
       DOS:  cpu time      0.0042: real time      0.0042
    CHARGE:  cpu time      3.9252: real time      3.9348
    MIXING:  cpu time      0.0041: real time      0.0041
    --------------------------------------------
      LOOP:  cpu time    114.9288: real time    115.3240

 eigenvalue-minimisations  : 38550
 total energy-change (2. order) :-0.9518786E+02  (-0.1921834E+02)
 number of electron     810.0000010 magnetization      27.0613574
 augmentation part      207.5579146 magnetization      23.1336881

 Broyden mixing:
  rms(total) = 0.19142E+01    rms(broyden)= 0.19142E+01
  rms(prec ) = 0.21289E+01
  weight for this iteration     100.00

 eigenvalues of (default mixing * dielectric matrix)
  average eigenvalue GAMMA=   0.9698
  1.0818  0.8578

 Free energy of the ion-electron system (eV)
  ---------------------------------------------------
  alpha Z        PSCENC =      2555.74497435
  Ewald energy   TEWEN  =    -43204.66451634
  -Hartree energ DENC   =    -28219.92998535
  -exchange      EXHF   =         0.00000000
  -V(xc)+E(xc)   XCENC  =      3860.00124173
  PAW double counting   =     59240.85413528   -59626.13843590
  entropy T*S    EENTRO =        -0.00000000
  eigenvalues    EBANDS =    -10476.71452892
  atomic energy  EATOM  =     75270.44210491
  Solvation  Ediel_sol  =         0.00000000
  ---------------------------------------------------
  free energy    TOTEN  =      -600.40501025 eV

  energy without entropy =     -600.40501025  energy(sigma->0) =     -600.40501025


--------------------------------------------------------------------------------------------------------




--------------------------------------- Iteration      1(   8)  ---------------------------------------


    POTLOK:  cpu time      0.1603: real time      0.2276
    SETDIJ:  cpu time      0.8863: real time      0.8885
     EDDAV:  cpu time    102.7454: real time    103.0043
       DOS:  cpu time      0.0067: real time      0.0067
    CHARGE:  cpu time      4.0007: real time      4.0106
    MIXING:  cpu time      0.0049: real time      0.0049
    --------------------------------------------
      LOOP:  cpu time    107.8042: real time    108.1426

 eigenvalue-minimisations  : 35480
 total energy-change (2. order) :-0.5437648E+02  (-0.4144742E+01)
 number of electron     810.0000010 magnetization       9.7743025
 augmentation part      209.5502483 magnetization       6.9787294

 Broyden mixing:
  rms(total) = 0.12380E+01    rms(broyden)= 0.12380E+01
  rms(prec ) = 0.13281E+01
  weight for this iteration     100.00

 eigenvalues of (default mixing * dielectric matrix)
  average eigenvalue GAMMA=   1.1671
  1.4081  1.4081  0.6851

 Free energy of the ion-electron system (eV)
  ---------------------------------------------------
  alpha Z        PSCENC =      2555.74497435
  Ewald energy   TEWEN  =    -43204.66451634
  -Hartree energ DENC   =    -28067.64993447
  -exchange      EXHF   =         0.00000000
  -V(xc)+E(xc)   XCENC  =      3824.27822913
  PAW double counting   =     60242.06869267   -60645.17169013
  entropy T*S    EENTRO =        -0.00000000
  eigenvalues    EBANDS =    -10629.82935027
  atomic energy  EATOM  =     75270.44210491
  Solvation  Ediel_sol  =         0.00000000
  ---------------------------------------------------
  free energy    TOTEN  =      -654.78149016 eV

  energy without entropy =     -654.78149016  energy(sigma->0) =     -654.78149016


--------------------------------------------------------------------------------------------------------




--------------------------------------- Iteration      1(   9)  ---------------------------------------


    POTLOK:  cpu time      0.1983: real time      0.3342
    SETDIJ:  cpu time      0.8955: real time      0.8977
     EDDAV:  cpu time    102.2158: real time    102.4736
       DOS:  cpu time      0.0083: real time      0.0083
    CHARGE:  cpu time      3.9116: real time      3.9212
    MIXING:  cpu time      0.0048: real time      0.0048
    --------------------------------------------
      LOOP:  cpu time    107.2342: real time    107.6398

 eigenvalue-minimisations  : 35120
 total energy-change (2. order) :-0.5496064E+02  (-0.7955683E+01)
 number of electron     810.0000010 magnetization       4.5501937
 augmentation part      208.7333198 magnetization       3.5874208

 Broyden mixing:
  rms(total) = 0.46800E+00    rms(broyden)= 0.46788E+00
  rms(prec ) = 0.56101E+00
  weight for this iteration     100.00

 eigenvalues of (default mixing * dielectric matrix)
  average eigenvalue GAMMA=   1.1669
  1.8740  1.4298  0.7610  0.6028

 Free energy of the ion-electron system (eV)
  ---------------------------------------------------
  alpha Z        PSCENC =      2555.74497435
  Ewald energy   TEWEN  =    -43204.66451634
  -Hartree energ DENC   =    -27922.53725672
  -exchange      EXHF   =         0.00000000
  -V(xc)+E(xc)   XCENC  =      3788.40667893
  PAW double counting   =     60938.06878483   -61347.64379479
  entropy T*S    EENTRO =        -0.00000000
  eigenvalues    EBANDS =    -10787.55910168
  atomic energy  EATOM  =     75270.44210491
  Solvation  Ediel_sol  =         0.00000000
  ---------------------------------------------------
  free energy    TOTEN  =      -709.74212652 eV

  energy without entropy =     -709.74212652  energy(sigma->0) =     -709.74212652


--------------------------------------------------------------------------------------------------------




--------------------------------------- Iteration      1(  10)  ---------------------------------------


    POTLOK:  cpu time      0.1711: real time      0.2020
    SETDIJ:  cpu time      0.8914: real time      0.8937
     EDDAV:  cpu time    107.2106: real time    107.4813
       DOS:  cpu time      0.0100: real time      0.0100
    CHARGE:  cpu time      3.9731: real time      3.9831
    MIXING:  cpu time      0.0052: real time      0.0052
    --------------------------------------------
      LOOP:  cpu time    112.2614: real time    112.5751

 eigenvalue-minimisations  : 37520
 total energy-change (2. order) :-0.8733512E+01  (-0.1378324E+01)
 number of electron     810.0000010 magnetization       2.0558226
 augmentation part      209.1214861 magnetization       1.7306731

 Broyden mixing:
  rms(total) = 0.19777E+00    rms(broyden)= 0.19771E+00
  rms(prec ) = 0.22427E+00
  weight for this iteration     100.00

 eigenvalues of (default mixing * dielectric matrix)
  average eigenvalue GAMMA=   1.2192
  2.1725  1.6107  0.9528  0.7664  0.5936

 Free energy of the ion-electron system (eV)
  ---------------------------------------------------
  alpha Z        PSCENC =      2555.74497435
  Ewald energy   TEWEN  =    -43204.66451634
  -Hartree energ DENC   =    -27881.37472309
  -exchange      EXHF   =         0.00000000
  -V(xc)+E(xc)   XCENC  =      3783.43995849
  PAW double counting   =     61037.05881692   -61451.32806637
  entropy T*S    EENTRO =        -0.00000000
  eigenvalues    EBANDS =    -10827.79418720
  atomic energy  EATOM  =     75270.44210491
  Solvation  Ediel_sol  =         0.00000000
  ---------------------------------------------------
  free energy    TOTEN  =      -718.47563834 eV

  energy without entropy =     -718.47563834  energy(sigma->0) =     -718.47563834


--------------------------------------------------------------------------------------------------------




--------------------------------------- Iteration      1(  11)  ---------------------------------------


    POTLOK:  cpu time      0.1644: real time      0.2216
    SETDIJ:  cpu time      0.9145: real time      0.9170
     EDDAV:  cpu time    103.0663: real time    103.3270
       DOS:  cpu time      0.0034: real time      0.0034
    CHARGE:  cpu time      3.9840: real time      3.9940
    MIXING:  cpu time      0.0051: real time      0.0051
    --------------------------------------------
      LOOP:  cpu time    108.1376: real time    108.4681

 eigenvalue-minimisations  : 35840
 total energy-change (2. order) :-0.2098672E+01  (-0.3518031E+00)
 number of electron     810.0000010 magnetization       0.5151383
 augmentation part      209.0729793 magnetization       0.3951933

 Broyden mixing:
  rms(total) = 0.98711E-01    rms(broyden)= 0.98684E-01
  rms(prec ) = 0.12210E+00
  weight for this iteration     100.00

 eigenvalues of (default mixing * dielectric matrix)
  average eigenvalue GAMMA=   1.2463
  2.5578  1.3980  1.3980  0.7952  0.7289  0.5999

 Free energy of the ion-electron system (eV)
  ---------------------------------------------------
  alpha Z        PSCENC =      2555.74497435
  Ewald energy   TEWEN  =    -43204.66451634
  -Hartree energ DENC   =    -27845.58673379
  -exchange      EXHF   =         0.00000000
  -V(xc)+E(xc)   XCENC  =      3781.13084901
  PAW double counting   =     60973.33276677   -61388.90849640
  entropy T*S    EENTRO =        -0.00000000
  eigenvalues    EBANDS =    -10862.06525862
  atomic energy  EATOM  =     75270.44210491
  Solvation  Ediel_sol  =         0.00000000
  ---------------------------------------------------
  free energy    TOTEN  =      -720.57431012 eV

  energy without entropy =     -720.57431012  energy(sigma->0) =     -720.57431012


--------------------------------------------------------------------------------------------------------




--------------------------------------- Iteration      1(  12)  ---------------------------------------


    POTLOK:  cpu time      0.1595: real time      0.2070
    SETDIJ:  cpu time      0.8919: real time      0.8942
     EDDAV:  cpu time     99.0410: real time     99.3162
       DOS:  cpu time      0.0165: real time      0.0165
    CHARGE:  cpu time      4.0367: real time      4.0468
    MIXING:  cpu time      0.0044: real time      0.0044
    --------------------------------------------
      LOOP:  cpu time    104.1501: real time    104.4850

 eigenvalue-minimisations  : 33870
 total energy-change (2. order) :-0.2461412E-01  (-0.2509347E-01)
 number of electron     810.0000010 magnetization       0.2711081
 augmentation part      209.1478741 magnetization       0.2290226

 Broyden mixing:
  rms(total) = 0.46402E-01    rms(broyden)= 0.46394E-01
  rms(prec ) = 0.57634E-01
  weight for this iteration     100.00

 eigenvalues of (default mixing * dielectric matrix)
  average eigenvalue GAMMA=   1.2186
  2.5429  1.5251  1.5251  0.8144  0.8144  0.7384  0.5700

 Free energy of the ion-electron system (eV)
  ---------------------------------------------------
  alpha Z        PSCENC =      2555.74497435
  Ewald energy   TEWEN  =    -43204.66451634
  -Hartree energ DENC   =    -27815.15312434
  -exchange      EXHF   =         0.00000000
  -V(xc)+E(xc)   XCENC  =      3779.96835723
  PAW double counting   =     60896.19357647   -61312.27316098
  entropy T*S    EENTRO =        -0.00000000
  eigenvalues    EBANDS =    -10890.85713553
  atomic energy  EATOM  =     75270.44210491
  Solvation  Ediel_sol  =         0.00000000
  ---------------------------------------------------
  free energy    TOTEN  =      -720.59892424 eV

  energy without entropy =     -720.59892424  energy(sigma->0) =     -720.59892424


--------------------------------------------------------------------------------------------------------




--------------------------------------- Iteration      1(  13)  ---------------------------------------


    POTLOK:  cpu time      0.1807: real time      0.3276
    SETDIJ:  cpu time      0.8827: real time      0.8848
     EDDAV:  cpu time     98.9568: real time     99.2081
       DOS:  cpu time      0.0106: real time      0.0106
    CHARGE:  cpu time      4.0185: real time      4.0286
    MIXING:  cpu time      0.0054: real time      0.0054
    --------------------------------------------
      LOOP:  cpu time    104.0547: real time    104.4651

 eigenvalue-minimisations  : 33840
 total energy-change (2. order) :-0.3890171E-03  (-0.5716173E-02)
 number of electron     810.0000010 magnetization       0.0180069
 augmentation part      209.1301850 magnetization      -0.0017145

 Broyden mixing:
  rms(total) = 0.24935E-01    rms(broyden)= 0.24934E-01
  rms(prec ) = 0.30562E-01
  weight for this iteration     100.00

 eigenvalues of (default mixing * dielectric matrix)
  average eigenvalue GAMMA=   1.2741
  2.6167  2.4393  1.1052  1.1052  0.8497  0.8497  0.5756  0.6513

 Free energy of the ion-electron system (eV)
  ---------------------------------------------------
  alpha Z        PSCENC =      2555.74497435
  Ewald energy   TEWEN  =    -43204.66451634
  -Hartree energ DENC   =    -27806.82246940
  -exchange      EXHF   =         0.00000000
  -V(xc)+E(xc)   XCENC  =      3779.67951897
  PAW double counting   =     60869.13264338   -61284.85720708
  entropy T*S    EENTRO =        -0.00000000
  eigenvalues    EBANDS =    -10899.25436203
  atomic energy  EATOM  =     75270.44210491
  Solvation  Ediel_sol  =         0.00000000
  ---------------------------------------------------
  free energy    TOTEN  =      -720.59931325 eV

  energy without entropy =     -720.59931325  energy(sigma->0) =     -720.59931325


--------------------------------------------------------------------------------------------------------




--------------------------------------- Iteration      1(  14)  ---------------------------------------


    POTLOK:  cpu time      0.2111: real time      0.3438
    SETDIJ:  cpu time      0.9080: real time      0.9103
     EDDAV:  cpu time     96.8161: real time     97.0617
       DOS:  cpu time      0.0084: real time      0.0084
    CHARGE:  cpu time      4.0502: real time      4.0678
    MIXING:  cpu time      0.0053: real time      0.0053
    --------------------------------------------
      LOOP:  cpu time    101.9992: real time    102.3975

 eigenvalue-minimisations  : 33020
 total energy-change (2. order) : 0.6844761E-02  (-0.1589010E-02)
 number of electron     810.0000010 magnetization      -0.0045318
 augmentation part      209.1310708 magnetization      -0.0097495

 Broyden mixing:
  rms(total) = 0.80974E-02    rms(broyden)= 0.80957E-02
  rms(prec ) = 0.10725E-01
  weight for this iteration     100.00

[...]
      3.80231      3.98554      7.84898         0.000254     -0.000546     -0.001135
      3.88470      7.72201     11.44242        -0.001304     -0.000675      0.001068
      3.74316      7.88774      3.84747         0.000859      0.002209     -0.000033
      3.74022      7.61523      7.77021         0.001031     -0.000678     -0.000577
      7.73665      0.10772     11.47731        -0.000281     -0.001258     -0.002281
      7.73283      0.16334      3.85263        -0.002000      0.000292      0.001370
      7.74482     11.47264      7.83632        -0.001244      0.001551     -0.002356
      7.59119      3.75810     11.57376        -0.002924     -0.001286      0.000077
      7.84837      3.78139      3.92702        -0.000859      0.001864      0.001842
      7.74933      3.86355      7.57310         0.000274     -0.001486     -0.002933
      7.88732      7.73546     11.47202         0.002523      0.001209      0.000392
      7.73339      7.73473      3.86247         0.000227     -0.000201      0.002802
      7.74070      7.85446      7.85427        -0.000327      0.001564     -0.005018
      0.01557      9.67674      0.05347         0.000577     -0.001071      0.002785
     11.55365      9.64048      3.79467         0.000222      0.000205     -0.001376
     11.50901      9.66164      7.71662        -0.001676     -0.001758      0.000662
      3.90357      1.94060      0.02205         0.001717     -0.000350     -0.002983
      3.91570      5.77985      7.61231        -0.001524      0.000002     -0.002364
      3.91440      9.65465      3.80818        -0.002168     -0.002453     -0.000708
      7.73258      1.93844      0.05451        -0.000638      0.003112     -0.001011
      7.69569      1.93599      3.78081        -0.000976      0.002221     -0.002778
      7.79535      9.66254      7.61771         0.001598     -0.004080     -0.002607
      1.94150      0.01702     11.58018        -0.000167      0.000130      0.000217
      1.93986      0.04894      3.75710        -0.003681      0.001463     -0.003246
      1.94900      0.00039      7.81789        -0.002884     -0.001867      0.003605
      1.91277      3.82471      7.66785         0.001371     -0.001326     -0.000772
      1.94617      7.68733      3.90651        -0.000286      0.001606      0.002487
      1.94285      7.73916      7.62322        -0.002269      0.001692     -0.001366
      5.81134      3.93686      0.04407         0.004256      0.000604      0.000714
      9.66281      3.91055      3.86104         0.000402      0.002082      0.000159
      9.65608      7.71917      0.05936        -0.002607     -0.000602     -0.000516
     11.60877      0.04055      5.78168         0.003274     -0.001629      0.001406
      0.03526      3.86515      1.92925         0.000387      0.000672      0.000650
      0.01677      7.67448      9.65672         0.002473      0.001135     -0.000326
      3.87319      0.04834      5.78430        -0.002759      0.000499     -0.000136
      3.85496      3.92687      9.65902        -0.000680      0.002612      0.001481
      3.88693      7.70449      9.68376        -0.001640     -0.001442     -0.000313
      7.74230     11.56717      9.65506        -0.000049     -0.000684      0.001588
      7.68699      3.88586      5.78491        -0.001634     -0.000186     -0.001152
      7.71572      7.76818      9.65256         0.001035      0.003374      0.002798
     11.53642      1.95856     11.52923        -0.001220     -0.000035     -0.000694
     11.57780      1.95773      3.85831        -0.003206     -0.000421      0.000297
     11.52288      1.95517      7.79070        -0.000333     -0.001334      0.001756
      0.05550      5.77561      0.00072         0.000859     -0.000547      0.000240
      0.02243      5.77456      3.91951         0.002594     -0.001337      0.002144
     11.55442      5.75691      7.66304         0.002652      0.000413     -0.000625
      3.96229      1.98352      3.75963         0.002376      0.000478     -0.002176
      3.94277      1.94469      7.75737        -0.000109     -0.000224      0.004197
      3.79836      5.80260      0.09579        -0.001710      0.000433      0.000827
      3.91050      5.75652      3.93707        -0.001547      0.000391      0.003225
      3.89416      9.65188      0.07246        -0.000716     -0.000974      0.000245
      3.97386      9.65527      7.70315         0.000032     -0.000747      0.000002
      7.74892      1.94407      7.71629        -0.000117      0.000799      0.000656
      7.75374      5.80043      0.02028        -0.000630      0.001448     -0.001689
      7.67206      5.82484      3.81631        -0.001644      0.000747     -0.000921
      7.69504      5.78502      7.72423        -0.000502      0.001094      0.000177
      7.71117      9.67523      0.08764         0.000161     -0.001217     -0.000164
      7.75299      9.63011      3.93041         0.002120      0.000402      0.001888
      1.90944      3.83874     11.57038        -0.000833     -0.003549     -0.001709
      1.96810      3.84744      3.96484        -0.000074     -0.002513      0.003127
      1.95882      7.72957      0.10734         0.000963      0.001186      0.002009
      5.81135     11.52799      0.03464         0.000793     -0.000370     -0.000741
      5.83658     11.57301      3.83895         0.001068     -0.000510      0.001730
      5.83195      0.03540      7.69911         0.000968     -0.000648     -0.001795
      5.77875      3.92337      3.74899        -0.001546      0.001828     -0.003324
      5.83399      3.80770      7.74950         0.000009     -0.000218      0.001254
      5.81445      7.69412      0.07695         0.000743     -0.000224     -0.000525
      5.84441      7.69135      3.86520         0.000423      0.001935      0.000464
      5.83059      7.72858      7.64619         0.001451     -0.000517      0.001216
      9.66044     11.59253      0.04691        -0.000695     -0.000790     -0.000271
      9.63352      0.00297      3.83737         0.001139      0.000780      0.000335
      9.65080      0.10989      7.69798         0.001490      0.000409     -0.001570
      9.67589      3.92552     11.57579        -0.001002      0.001083      0.000031
      9.66413      3.87873      7.71634        -0.000228      0.001116     -0.001276
      9.61661      7.64215      3.80240         0.000060     -0.001803     -0.001227
      9.64574      7.59622      7.65935         0.000685     -0.002053      0.002361
     11.51172      0.13950      1.92769        -0.001544      0.001634     -0.000802
     11.49044      0.04918      9.67377        -0.000763     -0.001886      0.000746
     11.57957      3.80895      5.78531        -0.001256     -0.001570      0.001027
     11.58849      3.90670      9.66923        -0.000054      0.000961     -0.000715
     11.60732      7.57884      1.94041         0.001089     -0.001789      0.001427
     11.47416      7.66501      5.76476        -0.001571      0.001180      0.000315
      3.98177      0.01920      1.93474         0.001015      0.000763     -0.001820
      3.99868     11.54170      9.65249         0.000155     -0.001584      0.001194
      3.74619      3.93904      1.97604        -0.003240      0.000495     -0.000061
      3.97655      3.74745      5.74022         0.002493     -0.003608     -0.001696
      3.93689      7.63786      1.93908         0.001022     -0.001130      0.001932
      4.00739      7.75693      5.76359         0.000366      0.002514     -0.001676
      7.73304     11.48763      1.94401        -0.000493     -0.000395     -0.001226
      7.73933      0.05317      5.77167         0.000496      0.003477     -0.001491
      7.76712      3.97406      1.94003         0.002098      0.001214     -0.002550
      7.76862      3.87976      9.62169        -0.000605      0.000252      0.001706
      7.67649      7.75958      1.97492        -0.000423      0.001413     -0.001859
      7.75518      7.63601      5.74451         0.001891     -0.001499     -0.000494
 -----------------------------------------------------------------------------------
    total drift:                               -0.004377      0.002140      0.000522


--------------------------------------------------------------------------------------------------------



  FREE ENERGIE OF THE ION-ELECTRON SYSTEM (eV)
  ---------------------------------------------------
  free  energy   TOTEN  =      -720.59287787 eV

  energy  without entropy=     -720.59287787  energy(sigma->0) =     -720.59287787
 


--------------------------------------------------------------------------------------------------------


    POTLOK:  cpu time      1.0859: real time      1.0887


--------------------------------------------------------------------------------------------------------


 Quasi-Newton relaxation of ions (Broydens 2nd method)
  g(Force)  = 0.374E-04   g(Stress)= 0.107E-03

 Reset! Starting new Quasi-Newton update for ions 


--------------------------------------------------------------------------------------------------------


  
 reached required accuracy - stopping structural energy minimisation
 writing wavefunctions
     LOOP+:  cpu time   2214.0944: real time   2222.3517
    4ORBIT:  cpu time      0.0000: real time      0.0000



 total charge

# of ion       s       p       d       tot
------------------------------------------
    1        0.321   6.452   1.789   8.562
    2        0.327   6.452   1.816   8.596
    3        0.326   6.449   1.805   8.580
    4        0.317   6.468   1.737   8.523
    5        0.325   6.465   1.781   8.571
    6        0.316   6.459   1.779   8.554
    7        0.327   6.454   1.809   8.590
    8        0.324   6.453   1.818   8.595
    9        0.326   6.449   1.808   8.582
   10        0.320   6.452   1.782   8.554
   11        0.330   6.457   1.836   8.624
   12        0.318   6.446   1.787   8.551
   13        0.331   6.460   1.834   8.625
   14        0.315   6.485   1.675   8.476
   15        0.329   6.459   1.829   8.616
   16        0.313   6.454   1.764   8.532
   17        0.328   6.459   1.851   8.638
   18        0.323   6.451   1.788   8.562
   19        0.321   6.458   1.773   8.552
   20        0.321   6.466   1.769   8.555
   21        0.323   6.458   1.781   8.563
   22        0.319   6.453   1.793   8.565
   23        0.330   6.467   1.802   8.598
   24        0.316   6.466   1.737   8.519
   25        0.323   6.456   1.818   8.597
   26        0.317   6.489   1.681   8.487
   27        0.325   6.458   1.804   8.587
   28        1.569   3.475   0.000   5.045
   29        1.569   3.472   0.000   5.040
   30        1.569   3.475   0.000   5.043
   31        1.569   3.476   0.000   5.045
   32        1.569   3.471   0.000   5.040
   33        1.571   3.481   0.000   5.052
   34        1.568   3.471   0.000   5.039
   35        1.571   3.477   0.000   5.048
   36        1.569   3.474   0.000   5.044
   37        1.568   3.472   0.000   5.040
   38        1.569   3.477   0.000   5.046
   39        1.568   3.470   0.000   5.038
   40        1.571   3.469   0.000   5.040
   41        1.569   3.481   0.000   5.051
   42        1.568   3.470   0.000   5.038
   43        1.570   3.475   0.000   5.045
   44        1.571   3.480   0.000   5.051
   45        1.570   3.473   0.000   5.043
   46        1.568   3.473   0.000   5.041
   47        1.570   3.474   0.000   5.044
   48        1.568   3.472   0.000   5.041
   49        1.568   3.474   0.000   5.042
   50        1.570   3.483   0.000   5.053
   51        1.570   3.462   0.000   5.033
   52        1.570   3.476   0.000   5.046
   53        1.570   3.471   0.000   5.041
   54        1.570   3.481   0.000   5.051
   55        1.731   4.374   0.000   6.104
   56        1.730   4.379   0.000   6.110
   57        1.730   4.375   0.000   6.106
   58        1.731   4.379   0.000   6.109
   59        1.730   4.377   0.000   6.108
   60        1.730   4.375   0.000   6.105
   61        1.732   4.371   0.000   6.103
   62        1.729   4.378   0.000   6.107
   63        1.730   4.380   0.000   6.110
   64        1.732   4.370   0.000   6.102
   65        1.729   4.374   0.000   6.104
   66        1.729   4.376   0.000   6.105
   67        1.730   4.377   0.000   6.107
   68        1.729   4.381   0.000   6.111
   69        1.731   4.380   0.000   6.111
   70        1.730   4.378   0.000   6.107
   71        1.729   4.380   0.000   6.109
   72        1.731   4.369   0.000   6.100
   73        1.730   4.379   0.000   6.109
   74        1.731   4.370   0.000   6.100
   75        1.729   4.377   0.000   6.107
   76        1.730   4.379   0.000   6.109
   77        1.731   4.376   0.000   6.106
   78        1.730   4.376   0.000   6.105
   79        1.731   4.375   0.000   6.106
   80        1.730   4.382   0.000   6.112
   81        1.729   4.376   0.000   6.106
   82        1.732   4.374   0.000   6.106
   83        1.730   4.376   0.000   6.106
   84        1.730   4.379   0.000   6.108
   85        1.731   4.375   0.000   6.105
   86        1.730   4.378   0.000   6.108
   87        1.730   4.375   0.000   6.105
   88        1.730   4.375   0.000   6.105
   89        1.732   4.369   0.000   6.101
   90        1.730   4.377   0.000   6.106
   91        1.729   4.376   0.000   6.106
   92        1.729   4.376   0.000   6.105
   93        1.729   4.383   0.000   6.112
   94        1.729   4.379   0.000   6.108
   95        1.730   4.376   0.000   6.106
   96        1.729   4.377   0.000   6.107
   97        1.730   4.381   0.000   6.110
   98        1.729   4.375   0.000   6.104
   99        1.732   4.371   0.000   6.103
  100        1.732   4.369   0.000   6.101
  101        1.730   4.379   0.000   6.109
  102        1.730   4.384   0.000   6.113
  103        1.730   4.378   0.000   6.109
  104        1.730   4.377   0.000   6.107
  105        1.730   4.384   0.000   6.113
  106        1.729   4.378   0.000   6.106
  107        1.732   4.375   0.000   6.107
  108        1.732   4.372   0.000   6.104
--------------------------------------------------
tot        144.514 504.531  48.247 697.292



 magnetization (x)

# of ion       s       p       d       tot
------------------------------------------
    1       -0.000  -0.000  -0.000  -0.000
    2       -0.000  -0.000  -0.000  -0.000
    3       -0.000  -0.000  -0.000  -0.000
    4       -0.000  -0.000  -0.000  -0.000
    5       -0.000  -0.000  -0.000  -0.000
    6       -0.000  -0.000  -0.000  -0.000
    7       -0.000  -0.000  -0.000  -0.000
    8       -0.000  -0.000  -0.000  -0.000
    9       -0.000  -0.000  -0.000  -0.000
   10       -0.000  -0.000  -0.000  -0.000
   11       -0.000  -0.000  -0.000  -0.000
   12       -0.000  -0.000  -0.000  -0.000
   13       -0.000  -0.000  -0.000  -0.000
   14       -0.000  -0.000  -0.000  -0.000
   15       -0.000  -0.000  -0.000  -0.000
   16       -0.000  -0.000  -0.000  -0.000
   17       -0.000  -0.000  -0.000  -0.000
   18       -0.000  -0.000  -0.000  -0.000
   19       -0.000  -0.000  -0.000  -0.000
   20       -0.000  -0.000  -0.000  -0.000
   21       -0.000  -0.000  -0.000  -0.000
   22       -0.000  -0.000  -0.000  -0.000
   23       -0.000  -0.000  -0.000  -0.000
   24       -0.000  -0.000  -0.000  -0.000
   25       -0.000  -0.000  -0.000  -0.000
   26       -0.000  -0.000  -0.000  -0.000
   27       -0.000  -0.000  -0.000  -0.000
   28        0.000   0.000   0.000   0.000
   29        0.000   0.000   0.000   0.000
   30        0.000   0.000   0.000   0.000
   31        0.000   0.000   0.000   0.000
   32        0.000   0.000   0.000   0.000
   33        0.000   0.000   0.000   0.000
   34        0.000   0.000   0.000   0.000
   35        0.000   0.000   0.000   0.000
   36        0.000   0.000   0.000   0.000
   37        0.000   0.000   0.000   0.000
   38        0.000   0.000   0.000   0.000
   39        0.000   0.000   0.000   0.000
   40        0.000   0.000   0.000   0.000
   41        0.000   0.000   0.000   0.000
   42        0.000   0.000   0.000   0.000
   43        0.000   0.000   0.000   0.000
   44        0.000   0.000   0.000   0.000
   45        0.000   0.000   0.000   0.000
   46        0.000   0.000   0.000   0.000
   47        0.000   0.000   0.000   0.000
   48        0.000   0.000   0.000   0.000
   49        0.000   0.000   0.000   0.000
   50        0.000   0.000   0.000   0.000
   51        0.000   0.000   0.000   0.000
   52        0.000   0.000   0.000   0.000
   53        0.000   0.000   0.000   0.000
   54        0.000   0.000   0.000   0.000
   55        0.000   0.000   0.000   0.000
   56        0.000   0.000   0.000   0.000
   57        0.000   0.000   0.000   0.000
   58        0.000   0.000   0.000   0.000
   59        0.000   0.000   0.000   0.000
   60        0.000   0.000   0.000   0.000
   61        0.000   0.000   0.000   0.000
   62        0.000   0.000   0.000   0.000
   63        0.000   0.000   0.000   0.000
   64        0.000   0.000   0.000   0.000
   65        0.000   0.000   0.000   0.000
   66        0.000   0.000   0.000   0.000
   67        0.000   0.000   0.000   0.000
   68        0.000   0.000   0.000   0.000
   69        0.000   0.000   0.000   0.000
   70        0.000   0.000   0.000   0.000
   71        0.000   0.000   0.000   0.000
   72        0.000   0.000   0.000   0.000
   73        0.000   0.000   0.000   0.000
   74        0.000   0.000   0.000   0.000
   75        0.000   0.000   0.000   0.000
   76        0.000   0.000   0.000   0.000
   77        0.000   0.000   0.000   0.000
   78        0.000   0.000   0.000   0.000
   79        0.000   0.000   0.000   0.000
   80        0.000   0.000   0.000   0.000
   81        0.000   0.000   0.000   0.000
   82        0.000   0.000   0.000   0.000
   83        0.000   0.000   0.000   0.000
   84        0.000   0.000   0.000   0.000
   85        0.000   0.000   0.000   0.000
   86        0.000   0.000   0.000   0.000
   87        0.000   0.000   0.000   0.000
   88        0.000   0.000   0.000   0.000
   89        0.000   0.000   0.000   0.000
   90        0.000   0.000   0.000   0.000
   91        0.000   0.000   0.000   0.000
   92        0.000   0.000   0.000   0.000
   93        0.000   0.000   0.000   0.000
   94        0.000   0.000   0.000   0.000
   95        0.000   0.000   0.000   0.000
   96        0.000   0.000   0.000   0.000
   97        0.000   0.000   0.000   0.000
   98        0.000   0.000   0.000   0.000
   99        0.000   0.000   0.000   0.000
  100        0.000   0.000   0.000   0.000
  101        0.000   0.000   0.000   0.000
  102        0.000   0.000   0.000   0.000
  103        0.000   0.000   0.000   0.000
  104        0.000   0.000   0.000   0.000
  105        0.000   0.000   0.000   0.000
  106        0.000   0.000   0.000   0.000
  107        0.000   0.000   0.000   0.000
  108        0.000   0.000   0.000   0.000
--------------------------------------------------
tot          0.000   0.000  -0.000   0.000
 

 total amount of memory used by VASP MPI-rank0   298825. kBytes
=======================================================================

   base      :      30000. kBytes
   nonlr-proj:      25217. kBytes
   fftplans  :      18873. kBytes
   grid      :      21088. kBytes
   one-center:        435. kBytes
   wavefun   :     203212. kBytes
 
  
  
 General timing and accounting informations for this job:
 ========================================================
  
                  Total CPU time used (sec):     2317.153
                            User time (sec):     2289.071
                          System time (sec):       28.081
                         Elapsed time (sec):     2326.427
  
                   Maximum memory used (kb):      886996.
                   Average memory used (kb):          N/A
  
                          Minor page faults:       332080
                          Major page faults:            7
                 Voluntary context switches:        21446
