 vasp.5.4.4.18Apr17-6-g9f103f2a35 (build Jul 16 2019 12:12:28) complex          
  
 executed on             LinuxIFC date 2020.01.06  16:01:09
 running on   96 total cores
 distrk:  each k-point on   96 cores,    1 groups
 distr:  one band on NCORES_PER_BAND=   8 cores,   12 groups


--------------------------------------------------------------------------------------------------------


 INCAR:
 POTCAR:    PAW_PBE Li_sv 10Sep2004               
 POTCAR:    PAW_PBE Ti_pv 07Sep2000               
 POTCAR:    PAW_PBE O 08Apr2002                   
 POTCAR:    PAW_PBE F 08Apr2002                   
 POTCAR:    PAW_PBE Li_sv 10Sep2004               
   VRHFIN =Li: 1s2s2p                                                           
   LEXCH  = PE                                                                  
   EATOM  =   202.7858 eV,   14.9043 Ry                                         
                                                                                
   TITEL  = PAW_PBE Li_sv 10Sep2004                                             
   LULTRA =        F    use ultrasoft PP ?                                      
   IUNSCR =        0    unscreen: 0-lin 1-nonlin 2-no                           
   RPACOR =    0.000    partial core radius                                     
   POMASS =    7.010; ZVAL   =    3.000    mass and valenz                      
   RCORE  =    1.700    outmost cutoff radius                                   
   RWIGS  =    2.050; RWIGS  =    1.085    wigner-seitz radius (au A)           
   ENMAX  =  499.034; ENMIN  =  374.276 eV                                      
   ICORE  =        2    local potential                                         
   LCOR   =        T    correct aug charges                                     
   LPAW   =        T    paw PP                                                  
   EAUG   =  628.945                                                            
   RMAX   =    1.732    core radius for proj-oper                               
   RAUG   =    1.300    factor for augmentation sphere                          
   RDEP   =    1.728    radius for radial grids                                 
   RDEPT  =    1.329    core radius for aug-charge                              
                                                                                
   Atomic configuration                                                         
    4 entries                                                                   
     n  l   j            E        occ.                                          
     1  0  0.50       -51.8549   2.0000                                         
     2  0  0.50        -2.8742   1.0000                                         
     2  1  0.50        -1.3606   0.0000                                         
     3  2  1.50        -1.3606   0.0000                                         
   Description                                                                  
     l       E           TYP  RCUT    TYP  RCUT                                 
     0    -51.8548813     23  1.400                                             
     0     -2.8742052     23  1.700                                             
     1     -1.3605826     23  1.400                                             
     2     -1.3605826     23  1.400                                             
  local pseudopotential read in
  atomic valenz-charges read in
  non local Contribution for L=           0  read in
    real space projection operators read in
  non local Contribution for L=           0  read in
    real space projection operators read in
  non local Contribution for L=           1  read in
    real space projection operators read in
    PAW grid and wavefunctions read in
 
   number of l-projection  operators is LMAX  =           3
   number of lm-projection operators is LMMAX =           5
 
 POTCAR:    PAW_PBE Ti_pv 07Sep2000               
   VRHFIN =Ti: d3 s1                                                            
   LEXCH  = PE                                                                  
   EATOM  =  1042.5995 eV,   76.6289 Ry                                         
                                                                                
   TITEL  = PAW_PBE Ti_pv 07Sep2000                                             
   LULTRA =        F    use ultrasoft PP ?                                      
   IUNSCR =        1    unscreen: 0-lin 1-nonlin 2-no                           
   RPACOR =    2.200    partial core radius                                     
   POMASS =   47.880; ZVAL   =   10.000    mass and valenz                      
   RCORE  =    2.500    outmost cutoff radius                                   
   RWIGS  =    2.500; RWIGS  =    1.323    wigner-seitz radius (au A)           
   ENMAX  =  222.335; ENMIN  =  166.751 eV                                      
   RCLOC  =    1.701    cutoff for local pot                                    
   LCOR   =        T    correct aug charges                                     
   LPAW   =        T    paw PP                                                  
   EAUG   =  482.848                                                            
   DEXC   =    0.000                                                            
   RMAX   =    2.564    core radius for proj-oper                               
   RAUG   =    1.300    factor for augmentation sphere                          
   RDEP   =    2.538    radius for radial grids                                 
   RDEPT  =    1.952    core radius for aug-charge                              
                                                                                
   Atomic configuration                                                         
    8 entries                                                                   
     n  l   j            E        occ.                                          
     1  0  0.50     -4865.3608   2.0000                                         
     2  0  0.50      -533.1368   2.0000                                         
     2  1  1.50      -440.5031   6.0000                                         
     3  0  0.50       -59.3186   2.0000                                         
     3  1  1.50       -35.7012   6.0000                                         
     3  2  2.50        -1.9157   3.0000                                         
     4  0  0.50        -3.7291   1.0000                                         
     4  3  2.50        -1.3606   0.0000                                         
   Description                                                                  
     l       E           TYP  RCUT    TYP  RCUT                                 
     1    -35.7012140     23  2.300                                             
     1     -1.3605826     23  2.300                                             
     2     -1.9156996     23  2.500                                             
     2     -0.4063033     23  2.500                                             
     0     -3.7290856     23  2.500                                             
     0     20.4087390     23  2.500                                             
  local pseudopotential read in
  partial core-charges read in
  partial kinetic energy density read in
  atomic valenz-charges read in
  non local Contribution for L=           1  read in
    real space projection operators read in
  non local Contribution for L=           1  read in
    real space projection operators read in
  non local Contribution for L=           2  read in
    real space projection operators read in
  non local Contribution for L=           2  read in
    real space projection operators read in
  non local Contribution for L=           0  read in
    real space projection operators read in
  non local Contribution for L=           0  read in
    real space projection operators read in
    PAW grid and wavefunctions read in
 
   number of l-projection  operators is LMAX  =           6
   number of lm-projection operators is LMMAX =          18
 
 POTCAR:    PAW_PBE O 08Apr2002                   
   VRHFIN =O: s2p4                                                              
   LEXCH  = PE                                                                  
   EATOM  =   432.3788 eV,   31.7789 Ry                                         
                                                                                
   TITEL  = PAW_PBE O 08Apr2002                                                 
   LULTRA =        F    use ultrasoft PP ?                                      
   IUNSCR =        1    unscreen: 0-lin 1-nonlin 2-no                           
   RPACOR =    1.200    partial core radius                                     
   POMASS =   16.000; ZVAL   =    6.000    mass and valenz                      
   RCORE  =    1.520    outmost cutoff radius                                   
   RWIGS  =    1.550; RWIGS  =    0.820    wigner-seitz radius (au A)           
   ENMAX  =  400.000; ENMIN  =  300.000 eV                                      
   ICORE  =        2    local potential                                         
   LCOR   =        T    correct aug charges                                     
   LPAW   =        T    paw PP                                                  
   EAUG   =  605.392                                                            
   DEXC   =    0.000                                                            
   RMAX   =    1.553    core radius for proj-oper                               
   RAUG   =    1.300    factor for augmentation sphere                          
   RDEP   =    1.550    radius for radial grids                                 
   RDEPT  =    1.329    core radius for aug-charge                              
                                                                                
   Atomic configuration                                                         
    4 entries                                                                   
     n  l   j            E        occ.                                          
     1  0  0.50      -514.6923   2.0000                                         
     2  0  0.50       -23.9615   2.0000                                         
     2  1  0.50        -9.0305   4.0000                                         
     3  2  1.50        -9.5241   0.0000                                         
   Description                                                                  
     l       E           TYP  RCUT    TYP  RCUT                                 
     0    -23.9615318     23  1.200                                             
     0     -9.5240782     23  1.200                                             
     1     -9.0304911     23  1.520                                             
     1      8.1634956     23  1.520                                             
     2     -9.5240782      7  1.500                                             
  local pseudopotential read in
  partial core-charges read in
  partial kinetic energy density read in
  kinetic energy density of atom read in
  atomic valenz-charges read in
  non local Contribution for L=           0  read in
    real space projection operators read in
  non local Contribution for L=           0  read in
    real space projection operators read in
  non local Contribution for L=           1  read in
    real space projection operators read in
  non local Contribution for L=           1  read in
    real space projection operators read in
    PAW grid and wavefunctions read in
 
   number of l-projection  operators is LMAX  =           4
   number of lm-projection operators is LMMAX =           8
 
 POTCAR:    PAW_PBE F 08Apr2002                   
   VRHFIN =F: s2p5                                                              
   LEXCH  = PE                                                                  
   EATOM  =   659.6475 eV,   48.4827 Ry                                         
                                                                                
   TITEL  = PAW_PBE F 08Apr2002                                                 
   LULTRA =        F    use ultrasoft PP ?                                      
   IUNSCR =        1    unscreen: 0-lin 1-nonlin 2-no                           
   RPACOR =    1.200    partial core radius                                     
   POMASS =   18.998; ZVAL   =    7.000    mass and valenz                      
   RCORE  =    1.520    outmost cutoff radius                                   
   RWIGS  =    1.500; RWIGS  =    0.794    wigner-seitz radius (au A)           
   ENMAX  =  400.000; ENMIN  =  300.000 eV                                      
   ICORE  =        2    local potential                                         
   LCOR   =        T    correct aug charges                                     
   LPAW   =        T    paw PP                                                  
   EAUG   =  613.614                                                            
   RMAX   =    1.555    core radius for proj-oper                               
   RAUG   =    1.300    factor for augmentation sphere                          
   RDEP   =    1.539    radius for radial grids                                 
   RDEPT  =    1.299    core radius for aug-charge                              
                                                                                
   Atomic configuration                                                         
    4 entries                                                                   
     n  l   j            E        occ.                                          
     1  0  0.50      -663.3661   2.0000                                         
     2  0  0.50       -29.8995   2.0000                                         
     2  1  0.50       -11.1114   5.0000                                         
     3  2  1.50       -10.8847   0.0000                                         
   Description                                                                  
     l       E           TYP  RCUT    TYP  RCUT                                 
     0    -29.8995018     23  1.200                                             
     0     -9.5240782     23  1.200                                             
     1    -11.1113914     23  1.520                                             
     1      1.3605826     23  1.520                                             
     2    -10.8846608      7  1.500                                             
  local pseudopotential read in
  partial core-charges read in
  partial kinetic energy density read in
  atomic valenz-charges read in
  non local Contribution for L=           0  read in
    real space projection operators read in
  non local Contribution for L=           0  read in
    real space projection operators read in
  non local Contribution for L=           1  read in
    real space projection operators read in
  non local Contribution for L=           1  read in
    real space projection operators read in
    PAW grid and wavefunctions read in
 
   number of l-projection  operators is LMAX  =           4
   number of lm-projection operators is LMMAX =           8
 
 Optimization of the real space projectors (new method)

 maximal supplied QI-value         = 22.11
 optimisation between [QCUT,QGAM] = [ 11.28, 22.77] = [ 35.61,145.23] Ry 
 Optimized for a Real-space Cutoff    1.31 Angstroem

   l    n(q)    QCUT    max X(q) W(low)/X(q) W(high)/X(q)  e(spline) 
   0      9    11.276    10.506    0.19E-04    0.17E-04    0.32E-07
   0      9    11.276     8.367    0.38E-04    0.40E-04    0.65E-07
   1      8    11.276     8.983    0.55E-04    0.98E-04    0.20E-06
 Optimization of the real space projectors (new method)

 maximal supplied QI-value         = 15.12
 optimisation between [QCUT,QGAM] = [ 11.34, 22.83] = [ 36.00,145.93] Ry 
 Optimized for a Real-space Cutoff    1.56 Angstroem

   l    n(q)    QCUT    max X(q) W(low)/X(q) W(high)/X(q)  e(spline) 
   1     10    11.338     4.216    0.27E-04    0.12E-04    0.66E-07
   1     10    11.338     5.422    0.81E-04    0.24E-04    0.19E-06
   2     10    11.338    72.084    0.64E-04    0.21E-03    0.51E-06
   2     10    11.338    65.965    0.63E-04    0.21E-03    0.50E-06
   0     11    11.338    41.531    0.33E-04    0.54E-04    0.13E-06
   0     11    11.338    16.290    0.26E-04    0.41E-04    0.11E-06
 Optimization of the real space projectors (new method)

 maximal supplied QI-value         = 24.76
 optimisation between [QCUT,QGAM] = [ 11.39, 22.77] = [ 36.31,145.25] Ry 
 Optimized for a Real-space Cutoff    1.20 Angstroem

   l    n(q)    QCUT    max X(q) W(low)/X(q) W(high)/X(q)  e(spline) 
   0      8    11.387    20.381    0.89E-04    0.31E-03    0.27E-06
   0      8    11.387    15.268    0.93E-04    0.32E-03    0.29E-06
   1      8    11.387     5.964    0.53E-04    0.28E-03    0.29E-06
   1      8    11.387     5.382    0.37E-04    0.22E-03    0.26E-06
 Optimization of the real space projectors (new method)

 maximal supplied QI-value         = 24.76
 optimisation between [QCUT,QGAM] = [ 11.39, 22.77] = [ 36.31,145.25] Ry 
 Optimized for a Real-space Cutoff    1.20 Angstroem

   l    n(q)    QCUT    max X(q) W(low)/X(q) W(high)/X(q)  e(spline) 
   0      8    11.387    14.049    0.69E-04    0.23E-03    0.18E-06
   0      8    11.387     8.945    0.88E-04    0.30E-03    0.26E-06
   1      8    11.387     7.086    0.62E-04    0.27E-03    0.27E-06
   1      8    11.387     6.747    0.46E-04    0.23E-03    0.25E-06

 ----------------------------------------------------------------------------- 
|                                                                             |
|  ADVICE TO THIS USER RUNNING 'VASP/VAMP'   (HEAR YOUR MASTER'S VOICE ...):  |
|                                                                             |
|      You enforced a specific xc-type in the INCAR file,                     |
|      a different type was found on the POTCAR file                          |
|          I HOPE YOU KNOW, WHAT YOU ARE  DOING                               |
|                                                                             |
 ----------------------------------------------------------------------------- 

  PAW_PBE Li_sv 10Sep2004               :
 energy of atom  1       EATOM= -202.7858
 kinetic energy error for atom=    0.0143 (will be added to EATOM!!)
  PAW_PBE Ti_pv 07Sep2000               :
 energy of atom  2       EATOM=-1042.5995
 kinetic energy error for atom=    0.0024 (will be added to EATOM!!)
  PAW_PBE O 08Apr2002                   :
 energy of atom  3       EATOM= -432.3788
 kinetic energy error for atom=    0.0224 (will be added to EATOM!!)
  PAW_PBE F 08Apr2002                   :
 energy of atom  4       EATOM= -659.6475
 kinetic energy error for atom=    0.0354 (will be added to EATOM!!)
 
 
 POSCAR: config 34                               
  positions in direct lattice
  velocities in cartesian coordinates
 exchange correlation table for  LEXCH =       14
   RHO(1)=    0.500       N(1)  =     2000
   RHO(2)=  100.500       N(2)  =     4000

 VTST: version 3.2, (02/03/18)

 CHAIN: initializing optimizer
 
 OPT: Using VASP QUASI-newton optimizer
 CHAIN: Read ICHAIN            0
 
 POSCAR: config 34                               
  positions in direct lattice
  velocities in cartesian coordinates
 


--------------------------------------------------------------------------------------------------------


 ion  position               nearest neighbor table
   1  0.606  0.123  0.356-  98 2.07 112 2.11  92 2.19 114 2.19  30 2.87  14 2.88
   2  0.995  0.995  0.995- 118 1.87  68 1.88 103 1.90 171 2.02 212 2.04 130 2.04
   3  0.998  0.992  0.494- 119 1.82  67 1.83 172 1.95 193 1.97 131 2.00 213 2.10
   4  0.006  0.496  0.998-  89 1.84 117 1.87 138 1.93 132 1.99 214 2.01 194 2.03
   5  0.995  0.504  0.507-  66 1.83 104 1.84 215 1.93 223 2.01 173 2.02 137 2.03
   6  0.495  0.993  0.000- 101 1.83 121 1.85 140 1.95 133 1.99 174 2.02 216 2.03
   7  0.501  0.006  0.498- 112 1.96 191 1.99 134 2.00 139 2.02 225 2.03 175 2.03
   8  0.504  0.494  0.997-  70 1.89  90 1.89 120 1.89 192 2.02 135 2.05 217 2.06
   9  0.493  0.497  0.496- 102 1.81  69 1.87 224 1.98 136 2.01 218 2.03 176 2.07
  10  0.006  0.004  0.256-  91 1.83  67 1.86 219 1.95 227 1.97 130 2.00 197 2.07
  11  0.001  0.008  0.757-  68 1.80 113 1.84 177 1.94 198 1.98 228 2.04 131 2.07
  12  0.994  0.493  0.252- 107 1.83 122 1.86 137 1.93 132 1.97 220 2.02 178 2.03
  13  0.993  0.500  0.742- 108 1.82  66 1.83 226 1.93 221 1.97 138 2.03 179 2.05
  14  0.504  0.008  0.251- 114 1.86  92 1.87 139 1.92 133 1.93 195 1.98 231 2.05   1 2.88
  15  0.493  0.005  0.752- 105 1.81 115 1.85 134 1.94 140 1.96 232 2.02 180 2.04
  16  0.494  0.495  0.258-  69 1.82 106 1.85 229 2.00 222 2.02 135 2.03 181 2.04
  17  0.501  0.502  0.759-  70 1.81 116 1.88 182 1.95 196 1.97 230 2.04 136 2.08
  18  0.995  0.258  0.002- 117 1.82 110 1.90 141 1.97 146 1.97 183 2.01 212 2.01
  19  0.998  0.248  0.491-  74 1.78 213 1.92 184 1.94 202 1.94 223 1.95 142 2.02
  20  0.998  0.758  0.006- 118 1.81  71 1.86 203 1.95 185 1.98 148 2.04 214 2.06
  21  0.996  0.758  0.506-  72 1.83 119 1.84 204 1.95 186 1.98 147 2.02 215 2.04
  22  0.495  0.257  0.002- 120 1.80 109 1.85 150 1.97 143 2.02 187 2.03 216 2.07
  23  0.510  0.242  0.495- 112 1.84  93 1.85 144 1.94 149 1.98 199 2.02 224 2.04
  24  0.507  0.756  0.000-  94 1.83 121 1.84 152 1.94 145 1.99 200 2.02 217 2.02
  25  0.507  0.752  0.509-  73 1.79  95 1.84 225 1.97 218 1.98 201 2.02 151 2.09
  26  0.999  0.258  0.256- 122 1.80  74 1.88 209 1.97 188 1.97 141 1.99 219 2.03
  27  0.006  0.243  0.748- 113 1.81  96 1.83 142 1.97 146 1.98 226 2.04 210 2.05
  28  0.007  0.748  0.243-  71 1.82  97 1.83 220 1.95 227 1.98 147 2.04 211 2.07
  29  0.993  0.751  0.743- 111 1.83  72 1.84 228 1.93 221 1.98 189 2.02 148 2.02
  30  0.507  0.242  0.252- 114 1.85  98 1.87 143 1.93 149 1.97 229 2.01 205 2.01   1 2.87
  31  0.507  0.242  0.751- 115 1.83  99 1.85 150 1.95 206 2.01 144 2.01 230 2.03
  32  0.507  0.751  0.251- 100 1.79 151 1.92 145 1.94 222 1.95 231 1.97 207 2.00
  33  0.502  0.741  0.744- 116 1.81  73 1.85 190 1.93 208 1.97 152 2.04 232 2.07
  34  0.256  0.998  0.006-  75 1.84 101 1.86 246 1.93 233 1.97 171 2.02 157 2.03
  35  0.252  0.995  0.506- 128 1.84  76 1.85 191 1.93 172 1.97 156 2.04 234 2.04
  36  0.244  0.508  0.998- 123 1.82  89 1.85 159 1.93 153 1.98 192 2.02 245 2.04
  37  0.256  0.495  0.506-  77 1.86 102 1.88 127 1.89 158 2.05 173 2.05 235 2.06
  38  0.757  1.000  0.995- 103 1.79  81 1.86 249 1.96 236 1.96 174 2.04 154 2.06
  39  0.750  0.008  0.496- 124 1.85  80 1.86 175 1.93 193 1.95 155 1.97 250 2.06
  40  0.742  0.501  0.005-  90 1.80  78 1.87 237 1.95 247 1.96 161 2.02 194 2.05
  41  0.756  0.500  0.506-  79 1.84 104 1.86 248 1.97 238 1.99 176 2.02 160 2.02
  42  0.244  0.003  0.243-  75 1.83  91 1.85 239 1.94 252 1.97 156 2.02 195 2.07
  43  0.258  0.998  0.744- 105 1.84  76 1.84 253 1.93 240 1.97 177 2.03 157 2.03
  44  0.255  0.491  0.252- 129 1.84 106 1.84 158 1.93 153 1.97 241 2.05 178 2.05
  45  0.247  0.506  0.741-  77 1.79 125 1.83 179 1.95 196 1.98 251 2.03 159 2.07
  46  0.746  0.001  0.257-  80 1.84  92 1.89 256 1.94 242 1.98 197 1.98 154 1.99
  47  0.748  0.007  0.757-  81 1.82 126 1.83 180 1.93 198 1.97 257 2.04 155 2.07
  48  0.756  0.498  0.243-  78 1.81 107 1.86 243 1.96 254 1.98 181 2.03 160 2.04
  49  0.758  0.499  0.743- 108 1.83  79 1.83 255 1.94 244 1.98 182 2.03 161 2.04
  50  0.257  0.251  0.006- 109 1.84  82 1.86 245 1.93 233 1.97 168 2.02 183 2.07
  51  0.254  0.257  0.505- 127 1.81  83 1.85 199 1.98 184 2.03 167 2.04 234 2.05
  52  0.252  0.742  0.994- 123 1.82  86 1.83 200 1.94 185 1.96 162 2.03 246 2.04
  53  0.253  0.757  0.493-  85 1.84 128 1.86 201 1.96 186 1.99 235 2.02 163 2.03
  54  0.757  0.251  0.009- 110 1.80  84 1.89 236 1.94 247 1.94 170 2.03 187 2.04
  55  0.742  0.245  0.497-  93 1.82 124 1.85 169 1.95 164 1.95 248 2.02 202 2.07
  56  0.742  0.749  0.995-  94 1.82  88 1.83 237 1.95 249 1.95 203 2.02 165 2.04
  57  0.742  0.754  0.495-  95 1.82  87 1.86 250 1.96 238 1.98 166 2.01 204 2.05
  58  0.250  0.257  0.243- 129 1.82  82 1.83 205 2.00 188 2.00 167 2.03 239 2.03
  59  0.244  0.251  0.744-  83 1.84  96 1.85 251 1.94 240 1.97 168 2.04 206 2.06
  60  0.244  0.747  0.256-  97 1.83  85 1.84 241 1.94 252 1.98 162 2.03 207 2.07
  61  0.248  0.742  0.757- 125 1.81  86 1.84 189 1.93 208 1.98 253 2.04 163 2.04
  62  0.741  0.251  0.243-  84 1.79  98 1.88 254 1.93 242 1.96 209 2.04 169 2.07
  63  0.744  0.243  0.752- 126 1.82  99 1.83 170 1.95 164 2.01 210 2.02 255 2.04
  64  0.745  0.750  0.257-  87 1.81 100 1.90 243 1.94 256 1.97 211 1.98 165 2.02
  65  0.757  0.751  0.757- 111 1.82  88 1.84 257 1.93 244 1.97 190 2.03 166 2.05
  66  0.010  0.503  0.625-  13 1.83   5 1.83
  67  0.994  0.006  0.376-   3 1.83  10 1.86
  68  0.999  0.002  0.873-  11 1.80   2 1.88
  69  0.499  0.485  0.375-  16 1.82   9 1.87
  70  0.493  0.488  0.875-  17 1.81   8 1.89
  71  0.998  0.745  0.126-  28 1.82  20 1.86
  72  0.002  0.746  0.624-  21 1.83  29 1.84
  73  0.503  0.743  0.624-  25 1.79  33 1.85
  74  0.987  0.247  0.376-  19 1.78  26 1.88
  75  0.254  0.003  0.125-  42 1.83  34 1.84
  76  0.254  0.004  0.625-  43 1.84  35 1.85
  77  0.238  0.494  0.625-  45 1.79  37 1.86
  78  0.749  0.491  0.126-  48 1.81  40 1.87
  79  0.745  0.495  0.624-  49 1.83  41 1.84
  80  0.754  0.000  0.376-  46 1.84  39 1.86
  81  0.746  0.998  0.875-  47 1.82  38 1.86
  82  0.239  0.250  0.126-  58 1.83  50 1.86
  83  0.247  0.250  0.625-  59 1.84  51 1.85
  84  0.732  0.258  0.128-  62 1.79  54 1.89
  85  0.255  0.746  0.375-  60 1.84  53 1.84
  86  0.252  0.752  0.875-  52 1.83  61 1.84
  87  0.752  0.753  0.374-  64 1.81  57 1.86
  88  0.748  0.753  0.876-  56 1.83  65 1.84
  89  0.124  0.506  0.993-   4 1.84  36 1.85
  90  0.626  0.509  0.997-  40 1.80   8 1.89
  91  0.124  0.010  0.252-  10 1.83  42 1.85
  92  0.625  0.020  0.260-  14 1.87  46 1.89   1 2.19
  93  0.627  0.269  0.484-  55 1.82  23 1.85
  94  0.624  0.738  0.003-  56 1.82  24 1.83
  95  0.625  0.770  0.496-  57 1.82  25 1.84
  96  0.125  0.252  0.756-  27 1.83  59 1.85
  97  0.125  0.745  0.252-  60 1.83  28 1.83
  98  0.625  0.229  0.275-  30 1.87  62 1.88   1 2.07
  99  0.626  0.254  0.755-  63 1.83  31 1.85
 100  0.623  0.745  0.251-  32 1.79  64 1.90
 101  0.376  0.997  0.993-   6 1.83  34 1.86
 102  0.377  0.511  0.505-   9 1.81  37 1.88
 103  0.872  0.999  0.002-  38 1.79   2 1.90
 104  0.876  0.514  0.501-   5 1.84  41 1.86
 105  0.376  0.996  0.760-  15 1.81  43 1.84
 106  0.374  0.488  0.248-  44 1.84  16 1.85
 107  0.875  0.488  0.252-  12 1.83  48 1.86
 108  0.876  0.510  0.745-  13 1.82  49 1.83
 109  0.376  0.249  0.011-  50 1.84  22 1.85
 110  0.873  0.251  0.015-  54 1.80  18 1.90
 111  0.875  0.743  0.749-  65 1.82  29 1.83
 112  0.527  0.127  0.468-  23 1.84   7 1.96   1 2.11
 113  0.996  0.126  0.744-  27 1.81  11 1.84
 114  0.489  0.125  0.275-  30 1.85  14 1.86   1 2.19
 115  0.502  0.124  0.761-  31 1.83  15 1.85
 116  0.503  0.624  0.758-  33 1.81  17 1.88
 117  0.002  0.375  0.005-  18 1.82   4 1.87
 118  0.004  0.875  0.002-  20 1.81   2 1.87
 119  0.982  0.876  0.499-   3 1.82  21 1.84
 120  0.506  0.373  0.015-  22 1.80   8 1.89
 121  0.506  0.875  0.014-  24 1.84   6 1.85
 122  0.013  0.373  0.248-  26 1.80  12 1.86
 123  0.259  0.625  0.003-  52 1.82  36 1.82
 124  0.729  0.126  0.497-  39 1.85  55 1.85
 125  0.247  0.624  0.749-  61 1.81  45 1.83
 126  0.751  0.125  0.746-  63 1.82  47 1.83
 127  0.262  0.373  0.493-  51 1.81  37 1.89
 128  0.264  0.876  0.499-  35 1.84  53 1.86
 129  0.237  0.374  0.258-  58 1.82  44 1.84
 130  0.000  0.003  0.127-  10 2.00   2 2.04
 131  0.004  0.998  0.624-   3 2.00  11 2.07
 132  0.001  0.510  0.125-  12 1.97   4 1.99
 133  0.497  0.019  0.127-  14 1.93   6 1.99
 134  0.496  0.011  0.627-  15 1.94   7 2.00
 135  0.503  0.513  0.128-  16 2.03   8 2.05
 136  0.511  0.507  0.624-   9 2.01  17 2.08
 137  0.002  0.496  0.376-  12 1.93   5 2.03
 138  0.993  0.496  0.873-   4 1.93  13 2.03
 139  0.500  0.974  0.371-  14 1.92   7 2.02
 140  0.516  0.987  0.876-   6 1.95  15 1.96
 141  0.014  0.245  0.128-  18 1.97  26 1.99
 142  0.007  0.258  0.621-  27 1.97  19 2.02
 143  0.517  0.229  0.128-  30 1.93  22 2.02
 144  0.509  0.231  0.621-  23 1.94  31 2.01
 145  0.496  0.735  0.127-  32 1.94  24 1.99
 146  0.988  0.251  0.875-  18 1.97  27 1.98
 147  0.994  0.751  0.375-  21 2.02  28 2.04
 148  0.001  0.752  0.874-  29 2.02  20 2.04
 149  0.485  0.274  0.373-  30 1.97  23 1.98
 150  0.492  0.264  0.874-  31 1.95  22 1.97
 151  0.493  0.765  0.375-  32 1.92  25 2.09
 152  0.499  0.760  0.875-  24 1.94  33 2.04
 153  0.243  0.493  0.125-  44 1.97  36 1.98
 154  0.745  0.005  0.128-  46 1.99  38 2.06
 155  0.749  0.999  0.623-  39 1.97  47 2.07
 156  0.252  0.002  0.374-  42 2.02  35 2.04
 157  0.241  0.993  0.875-  34 2.03  43 2.03
 158  0.250  0.512  0.375-  44 1.93  37 2.05
 159  0.262  0.498  0.874-  36 1.93  45 2.07
 160  0.748  0.506  0.375-  41 2.02  48 2.04
 161  0.754  0.506  0.875-  40 2.02  49 2.04
 162  0.252  0.755  0.125-  60 2.03  52 2.03
 163  0.249  0.751  0.625-  53 2.03  61 2.04
 164  0.744  0.259  0.623-  55 1.95  63 2.01
 165  0.752  0.748  0.126-  64 2.02  56 2.04
 166  0.747  0.749  0.624-  57 2.01  65 2.05
 167  0.261  0.243  0.374-  58 2.03  51 2.04
 168  0.259  0.251  0.875-  50 2.02  59 2.04
 169  0.770  0.245  0.374-  55 1.95  62 2.07
 170  0.761  0.245  0.877-  63 1.95  54 2.03
 171  0.125  0.004  0.003-  34 2.02   2 2.02
 172  0.125  0.988  0.497-   3 1.95  35 1.97
 173  0.124  0.489  0.491-   5 2.02  37 2.05
 174  0.625  0.004  0.008-   6 2.02  38 2.04
 175  0.629  0.976  0.500-  39 1.93   7 2.03
 176  0.627  0.485  0.497-  41 2.02   9 2.07
 177  0.127  0.001  0.747-  11 1.94  43 2.03
 178  0.124  0.512  0.251-  12 2.03  44 2.05
 179  0.124  0.492  0.765-  45 1.95  13 2.05
 180  0.624  0.995  0.741-  47 1.93  15 2.04
 181  0.625  0.509  0.251-  48 2.03  16 2.04
 182  0.627  0.491  0.758-  17 1.95  49 2.03
 183  0.124  0.248  0.989-  18 2.01  50 2.07
 184  0.123  0.261  0.490-  19 1.94  51 2.03
 185  0.125  0.741  0.001-  52 1.96  20 1.98
 186  0.124  0.764  0.495-  21 1.98  53 1.99
 187  0.626  0.247  0.988-  22 2.03  54 2.04
 188  0.124  0.232  0.263-  26 1.97  58 2.00
 189  0.123  0.755  0.751-  61 1.93  29 2.02
 190  0.626  0.755  0.751-  33 1.93  65 2.03
 191  0.373  0.025  0.494-  35 1.93   7 1.99
 192  0.374  0.492  0.010-  36 2.02   8 2.02
 193  0.875  0.023  0.509-  39 1.95   3 1.97
 194  0.875  0.495  0.001-   4 2.03  40 2.05
 195  0.377  0.991  0.251-  14 1.98  42 2.07
 196  0.375  0.499  0.738-  17 1.97  45 1.98
 197  0.873  0.991  0.244-  46 1.98  10 2.07
 198  0.874  0.994  0.744-  47 1.97  11 1.98
 199  0.380  0.231  0.504-  51 1.98  23 2.02
 200  0.376  0.760  0.002-  52 1.94  24 2.02
 201  0.378  0.734  0.502-  53 1.96  25 2.02
 202  0.875  0.235  0.512-  19 1.94  55 2.07
 203  0.872  0.758  0.999-  20 1.95  56 2.02
 204  0.872  0.732  0.503-  21 1.95  57 2.05
 205  0.379  0.262  0.237-  58 2.00  30 2.01
 206  0.377  0.249  0.743-  31 2.01  59 2.06
 207  0.377  0.757  0.247-  32 2.00  60 2.07
 208  0.375  0.754  0.748-  33 1.97  61 1.98
 209  0.872  0.265  0.237-  26 1.97  62 2.04
 210  0.874  0.254  0.740-  63 2.02  27 2.05
 211  0.873  0.757  0.249-  64 1.98  28 2.07
 212  0.001  0.127  0.001-  18 2.01   2 2.04
 213  0.014  0.126  0.508-  19 1.92   3 2.10
 214  0.991  0.625  0.993-   4 2.01  20 2.06
 215  0.014  0.627  0.492-   5 1.93  21 2.04
 216  0.502  0.124  0.988-   6 2.03  22 2.07
 217  0.487  0.626  0.992-  24 2.02   8 2.06
 218  0.516  0.626  0.488-  25 1.98   9 2.03
 219  0.983  0.128  0.246-  10 1.95  26 2.03
 220  0.990  0.623  0.258-  28 1.95  12 2.02
 221  0.012  0.625  0.757-  13 1.97  29 1.98
 222  0.492  0.626  0.265-  32 1.95  16 2.02
 223  0.988  0.374  0.499-  19 1.95   5 2.01
 224  0.487  0.370  0.515-   9 1.98  23 2.04
 225  0.480  0.877  0.510-  25 1.97   7 2.03
 226  0.994  0.375  0.750-  13 1.93  27 2.04
 227  0.003  0.876  0.251-  10 1.97  28 1.98
 228  1.000  0.876  0.747-  29 1.93  11 2.04
 229  0.516  0.370  0.234-  16 2.00  30 2.01
 230  0.497  0.372  0.735-  31 2.03  17 2.04
 231  0.508  0.877  0.231-  32 1.97  14 2.05
 232  0.502  0.875  0.744-  15 2.02  33 2.07
 233  0.248  0.125  0.992-  34 1.97  50 1.97
 234  0.234  0.125  0.496-  35 2.04  51 2.05
 235  0.238  0.627  0.505-  53 2.02  37 2.06
 236  0.746  0.126  0.004-  54 1.94  38 1.96
 237  0.764  0.625  0.004-  56 1.95  40 1.95
 238  0.733  0.627  0.501-  57 1.98  41 1.99
 239  0.265  0.127  0.252-  42 1.94  58 2.03
 240  0.251  0.125  0.759-  43 1.97  59 1.97
 241  0.259  0.623  0.240-  60 1.94  44 2.05
 242  0.769  0.127  0.249-  62 1.96  46 1.98
 243  0.757  0.625  0.248-  64 1.94  48 1.96
 244  0.738  0.625  0.748-  65 1.97  49 1.98
 245  0.247  0.376  0.997-  50 1.93  36 2.04
 246  0.242  0.873  0.004-  34 1.93  52 2.04
 247  0.745  0.375  0.988-  54 1.94  40 1.96
 248  0.769  0.373  0.492-  41 1.97  55 2.02
 249  0.741  0.875  0.010-  56 1.95  38 1.96
 250  0.773  0.877  0.504-  57 1.96  39 2.06
 251  0.255  0.376  0.756-  59 1.94  45 2.03
 252  0.247  0.876  0.251-  42 1.97  60 1.98
 253  0.247  0.873  0.745-  43 1.93  61 2.04
 254  0.733  0.374  0.265-  62 1.93  48 1.98
 255  0.757  0.374  0.758-  49 1.94  63 2.04
 256  0.739  0.877  0.243-  46 1.94  64 1.97
 257  0.751  0.875  0.743-  65 1.93  47 2.04
 

IMPORTANT INFORMATION: All symmetrisations will be switched off!
NOSYMM: (Re-)initialisation of all symmetry stuff for point group C_1.

 
 
 KPOINTS: Title                                   

Automatic generation of k-mesh.
Space group operators:
 irot       det(A)        alpha          n_x          n_y          n_z        tau_x        tau_y        tau_z
    1     1.000000     0.000001     1.000000     0.000000     0.000000     0.000000     0.000000     0.000000
 
 Subroutine IBZKPT returns following result:
 ===========================================
 
 Found      4 irreducible k-points:
 
 Following reciprocal coordinates:
            Coordinates               Weight
  0.250000  0.250000  0.250000      2.000000
 -0.250000  0.250000  0.250000      2.000000
  0.250000 -0.250000  0.250000      2.000000
 -0.250000 -0.250000  0.250000      2.000000
 
 Following cartesian coordinates:
            Coordinates               Weight
  0.016206  0.016206  0.016206      2.000000
 -0.016206  0.016206  0.016206      2.000000
  0.016206 -0.016206  0.016206      2.000000
 -0.016206 -0.016206  0.016206      2.000000
 


--------------------------------------------------------------------------------------------------------




 Dimension of arrays:
   k-points           NKPTS =      4   k-points in BZ     NKDIM =      4   number of bands    NBANDS=   1164
   number of dos      NEDOS =   3001   number of ions     NIONS =    257
   non local maximal  LDIM  =      6   non local SUM 2l+1 LMDIM =     18
   total plane-waves  NPLWV = ******
   max r-space proj   IRMAX =   7595   max aug-charges    IRDMAX= 146383
   dimension x,y,z NGX =   120 NGY =  120 NGZ =  120
   dimension x,y,z NGXF=   240 NGYF=  240 NGZF=  240
   support grid    NGXF=   480 NGYF=  480 NGZF=  480
   ions per type =               1  64  64 128
   NGX,Y,Z   is equivalent  to a cutoff of  12.93, 12.93, 12.93 a.u.
   NGXF,Y,Z  is equivalent  to a cutoff of  25.86, 25.86, 25.86 a.u.

 SYSTEM =  LTO                                     
 POSCAR =  config 34                               

 Startparameter for this run:
   NWRITE =      2    write-flag & timer
   PREC   = accura    normal or accurate (medium, high low for compatibility)
   ISTART =      1    job   : 0-new  1-cont  2-samecut
   ICHARG =      0    charge: 1-file 2-atom 10-const
   ISPIN  =      2    spin polarized calculation?
   LNONCOLLINEAR =      F non collinear calculations
   LSORBIT =      F    spin-orbit coupling
   INIWAV =      1    electr: 0-lowe 1-rand  2-diag
   LASPH  =      T    aspherical Exc in radial PAW
   METAGGA=      F    non-selfconsistent MetaGGA calc.

 Electronic Relaxation 1
   ENCUT  =  500.0 eV  36.75 Ry    6.06 a.u.  28.13 28.13 28.13*2*pi/ulx,y,z
   ENINI  =  500.0     initial cutoff
   ENAUG  =  628.9 eV  augmentation charge cutoff
   NELM   =     60;   NELMIN=  2; NELMDL=  0     # of ELM steps 
   EDIFF  = 0.1E-05   stopping-criterion for ELM
   LREAL  =      T    real-space projection
   NLSPLINE    = F    spline interpolate recip. space projectors
   LCOMPAT=      F    compatible to vasp.4.4
   GGA_COMPAT  = T    GGA compatible to vasp.4.4-vasp.4.6
   LMAXPAW     = -100 max onsite density
   LMAXMIX     =    4 max onsite mixed and CHGCAR
   VOSKOWN=      0    Vosko Wilk Nusair interpolation
   ROPT   =   -0.00010  -0.00010  -0.00010  -0.00010
 Ionic relaxation
   EDIFFG = -.5E-01   stopping-criterion for IOM
   NSW    =    100    number of steps for IOM
   NBLOCK =      1;   KBLOCK =    100    inner block; outer block 
   IBRION =      1    ionic relax: 0-MD 1-quasi-New 2-CG
   NFREE  =      0    steps in history (QN), initial steepest desc. (CG)
   ISIF   =      2    stress and relaxation
   IWAVPR =     11    prediction:  0-non 1-charg 2-wave 3-comb
   ISYM   =      0    0-nonsym 1-usesym 2-fastsym
   LCORR  =      T    Harris-Foulkes like correction to forces

   POTIM  = 0.5000    time-step for ionic-motion
   TEIN   =    0.0    initial temperature
   TEBEG  =    0.0;   TEEND  =   0.0 temperature during run
   SMASS  =  -3.00    Nose mass-parameter (am)
   estimated Nose-frequenzy (Omega)   =  0.10E-29 period in steps =****** mass=  -0.544E-26a.u.
   SCALEE = 1.0000    scale energy and forces
   NPACO  =    256;   APACO  = 16.0  distance and # of slots for P.C.
   PSTRESS=    0.0 pullay stress

  Mass of Ions in am
   POMASS =   7.01 47.88 16.00 19.00
  Ionic Valenz
   ZVAL   =   3.00 10.00  6.00  7.00
  Atomic Wigner-Seitz radii
   RWIGS  =  -1.00 -1.00 -1.00 -1.00
  virtual crystal weights 
   VCA    =   1.00  1.00  1.00  1.00
   NELECT =    1923.0000    total number of electrons
   NUPDOWN=       1.0000    fix difference up-down

 DOS related values:
   EMIN   =  10.00;   EMAX   =-10.00  energy-range for DOS
   EFERMI =   0.00
   ISMEAR =     0;   SIGMA  =   0.01  broadening in eV -4-tet -1-fermi 0-gaus

 Electronic relaxation 2 (details)
   IALGO  =     38    algorithm
   LDIAG  =      T    sub-space diagonalisation (order eigenvalues)
   LSUBROT=      F    optimize rotation matrix (better conditioning)
   TURBO    =      0    0=normal 1=particle mesh
   IRESTART =      0    0=no restart 2=restart with 2 vectors
   NREBOOT  =      0    no. of reboots
   NMIN     =      0    reboot dimension
   EREF     =   0.00    reference energy to select bands
   IMIX   =      4    mixing-type and parameters
     AMIX     =   0.40;   BMIX     =  1.00
     AMIX_MAG =   1.60;   BMIX_MAG =  1.00
     AMIN     =   0.10
     WC   =   100.;   INIMIX=   1;  MIXPRE=   1;  MAXMIX= -45

 Intra band minimization:
   WEIMIN = 0.0010     energy-eigenvalue tresh-hold
   EBREAK =  0.21E-09  absolut break condition
   DEPER  =   0.30     relativ break condition  

   TIME   =   0.40     timestep for ELM

  volume/ion in A,a.u.               =      14.28        96.39
  Fermi-wavevector in a.u.,A,eV,Ry     =   1.319690  2.493853 23.695660  1.741582
  Thomas-Fermi vector in A             =   2.449570
 
 Write flags
   LWAVE        =      T    write WAVECAR
   LDOWNSAMPLE  =      F    k-point downsampling of WAVECAR
   LCHARG       =      T    write CHGCAR
   LVTOT        =      F    write LOCPOT, total local potential
   LVHAR        =      F    write LOCPOT, Hartree potential only
   LELF         =      F    write electronic localiz. function (ELF)
   LORBIT       =     11    0 simple, 1 ext, 2 COOP (PROOUT), +10 PAW based schemes


 Dipole corrections
   LMONO  =      F    monopole corrections only (constant potential shift)
   LDIPOL =      F    correct potential (dipole corrections)
   IDIPOL =      0    1-x, 2-y, 3-z, 4-all directions 
   EPSILON=  1.0000000 bulk dielectric constant

 LDA+U is selected, type is set to LDAUTYPE =  2
   angular momentum for each species LDAUL =    -1    2   -1   -1
   U (eV)           for each species LDAUU =   0.0  4.2  0.0  0.0
   J (eV)           for each species LDAUJ =   0.0  0.0  0.0  0.0
 Exchange correlation treatment:
   GGA     =    PS    GGA type
   LEXCH   =    14    internal setting for exchange type
   VOSKOWN=      0    Vosko Wilk Nusair interpolation
   LHFCALC =     F    Hartree Fock is set to
   LHFONE  =     F    Hartree Fock one center treatment
   AEXX    =    0.0000 exact exchange contribution

 Linear response parameters
   LEPSILON=     F    determine dielectric tensor
   LRPA    =     F    only Hartree local field effects (RPA)
   LNABLA  =     F    use nabla operator in PAW spheres
   LVEL    =     F    velocity operator in full k-point grid
   LINTERFAST=   F  fast interpolation
   KINTER  =     0    interpolate to denser k-point grid
   CSHIFT  =0.1000    complex shift for real part using Kramers Kronig
   OMEGAMAX=  -1.0    maximum frequency
   DEG_THRESHOLD= 0.2000000E-02 threshold for treating states as degnerate
   RTIME   =   -0.100 relaxation time in fs
  (WPLASMAI=    0.000 imaginary part of plasma frequency in eV, 0.658/RTIME)
   DFIELD  = 0.0000000 0.0000000 0.0000000 field for delta impulse in time
 
 Orbital magnetization related:
   ORBITALMAG=     F  switch on orbital magnetization
   LCHIMAG   =     F  perturbation theory with respect to B field
   DQ        =  0.001000  dq finite difference perturbation B field
   LLRAUG    =     F  two centre corrections for induced B field



--------------------------------------------------------------------------------------------------------


 quasi-Newton-method for relaxation of ions
 charge density and potential will be updated during run
 spin polarized calculation
 Variant of blocked Davidson
 Davidson routine will perform the subspace rotation
 perform sub-space diagonalisation
    after iterative eigenvector-optimisation
 modified Broyden-mixing scheme, WC =      100.0
 initial mixing is a Kerker type mixing with AMIX =  0.4000 and BMIX =      1.0000
 Hartree-type preconditioning will be used
 using additional bands          202
 real space projection scheme for non local part
 use partial core corrections
 calculate Harris-corrections to forces 
   (improved forces if not selfconsistent)
 use gradient corrections 
 use of overlap-Matrix (Vanderbilt PP)
 Gauss-broadening in eV      SIGMA  =   0.01


--------------------------------------------------------------------------------------------------------


  energy-cutoff  :      500.00
  volume of cell :     3671.03
      direct lattice vectors                 reciprocal lattice vectors
    15.426331000  0.000000000  0.000000000     0.064824228  0.000000000  0.000000000
     0.000000000 15.426331000  0.000000000     0.000000000  0.064824228  0.000000000
     0.000000000  0.000000000 15.426331000     0.000000000  0.000000000  0.064824228

  length of vectors
    15.426331000 15.426331000 15.426331000     0.064824228  0.064824228  0.064824228


 
 old parameters found on file WAVECAR:
  energy-cutoff  :      500.00
  volume of cell :     3671.03
      direct lattice vectors                 reciprocal lattice vectors
    15.426331000  0.000000000  0.000000000     0.064824228  0.000000000  0.000000000
     0.000000000 15.426331000  0.000000000     0.000000000  0.064824228  0.000000000
     0.000000000  0.000000000 15.426331000     0.000000000  0.000000000  0.064824228

  length of vectors

 
 k-points in units of 2pi/SCALE and weight: Title                                   
   0.01620606  0.01620606  0.01620606       0.250
  -0.01620606  0.01620606  0.01620606       0.250
   0.01620606 -0.01620606  0.01620606       0.250
  -0.01620606 -0.01620606  0.01620606       0.250
 
 k-points in reciprocal lattice and weights: Title                                   
   0.25000000  0.25000000  0.25000000       0.250
  -0.25000000  0.25000000  0.25000000       0.250
   0.25000000 -0.25000000  0.25000000       0.250
  -0.25000000 -0.25000000  0.25000000       0.250
 
 position of ions in fractional coordinates (direct lattice) 
   0.60623639  0.12337745  0.35603901
   0.99513267  0.99519004  0.99501016
   0.99829074  0.99198498  0.49378866
   0.00595399  0.49570511  0.99763777
   0.99486987  0.50434045  0.50729875
   0.49455110  0.99320185  0.00002783
   0.50120480  0.00648455  0.49755064
   0.50412932  0.49410298  0.99662848
   0.49283062  0.49699238  0.49581708
   0.00603356  0.00375742  0.25631549
   0.00126581  0.00778496  0.75703783
   0.99387210  0.49264692  0.25153426
   0.99325597  0.49960658  0.74183705
   0.50415611  0.00800056  0.25089409
   0.49253510  0.00482573  0.75214429
   0.49350290  0.49532948  0.25779726
   0.50123456  0.50235497  0.75903807
   0.99544984  0.25754855  0.00249541
   0.99812585  0.24845563  0.49140246
   0.99808455  0.75786786  0.00632383
   0.99640264  0.75755016  0.50581923
   0.49529666  0.25744114  0.00164900
   0.51028387  0.24181694  0.49499179
   0.50711526  0.75576517  0.00023474
   0.50737770  0.75205008  0.50883153
   0.99881122  0.25824382  0.25559288
   0.00638467  0.24281726  0.74804022
   0.00656689  0.74785494  0.24333670
   0.99298728  0.75061644  0.74316275
   0.50671927  0.24152328  0.25192472
   0.50702017  0.24213487  0.75061653
   0.50661506  0.75078827  0.25148926
   0.50201340  0.74056401  0.74405963
   0.25602986  0.99802657  0.00550598
   0.25207208  0.99488992  0.50603885
   0.24415081  0.50764950  0.99759347
   0.25576614  0.49471315  0.50643696
   0.75656961  0.99986452  0.99512958
   0.75014490  0.00840774  0.49566106
   0.74173309  0.50080251  0.00512811
   0.75647836  0.49981527  0.50578988
   0.24358115  0.00289145  0.24331158
   0.25773673  0.99783860  0.74412599
   0.25545835  0.49109555  0.25172114
   0.24720058  0.50572936  0.74081515
   0.74560045  0.00149893  0.25672883
   0.74814002  0.00662679  0.75714581
   0.75561196  0.49817241  0.24307044
   0.75765296  0.49868460  0.74272946
   0.25719069  0.25103118  0.00620269
   0.25418691  0.25663919  0.50480109
   0.25211257  0.74218658  0.99399455
   0.25296660  0.75653273  0.49321364
   0.75660521  0.25100397  0.00860209
   0.74161594  0.24519429  0.49719378
   0.74151608  0.74922371  0.99458900
   0.74168419  0.75444487  0.49466229
   0.24964095  0.25718999  0.24333651
   0.24373522  0.25134567  0.74359377
   0.24393775  0.74729125  0.25611465
   0.24809897  0.74166641  0.75674097
   0.74097121  0.25073918  0.24334530
   0.74442061  0.24252781  0.75225355
   0.74543411  0.74995702  0.25722613
   0.75738589  0.75091615  0.75710973
   0.01038191  0.50271550  0.62471381
   0.99376749  0.00644903  0.37601865
   0.99914134  0.00230978  0.87331149
   0.49906893  0.48536823  0.37523487
   0.49298564  0.48807830  0.87505497
   0.99839609  0.74456452  0.12585974
   0.00176895  0.74602669  0.62408556
   0.50319832  0.74250509  0.62446633
   0.98704501  0.24738139  0.37630590
   0.25358071  0.00334811  0.12487410
   0.25442958  0.00444006  0.62535456
   0.23814510  0.49432599  0.62546202
   0.74904015  0.49092183  0.12601112
   0.74537985  0.49450291  0.62449560
   0.75436158  0.00047842  0.37560296
   0.74618954  0.99756087  0.87473852
   0.23919844  0.24952993  0.12559297
   0.24671601  0.24974004  0.62450298
   0.73200579  0.25765814  0.12812518
   0.25493517  0.74571717  0.37462723
   0.25197626  0.75185530  0.87543893
   0.75232517  0.75344716  0.37435528
   0.74820841  0.75332633  0.87594067
   0.12448020  0.50588949  0.99327775
   0.62563972  0.50945617  0.99721670
   0.12444329  0.00982614  0.25203327
   0.62453321  0.02025101  0.26025696
   0.62658502  0.26895735  0.48424819
   0.62432991  0.73836266  0.00342740
   0.62488888  0.77029611  0.49630648
   0.12459487  0.25178996  0.75552260
   0.12515134  0.74501621  0.25214227
   0.62515730  0.22864639  0.27505013
   0.62614325  0.25358516  0.75539487
   0.62253275  0.74494889  0.25146570
   0.37611165  0.99704264  0.99311986
   0.37655620  0.51131003  0.50518540
   0.87236546  0.99944851  0.00230428
   0.87595948  0.51358437  0.50143830
   0.37567512  0.99640662  0.75971409
   0.37447919  0.48801533  0.24760295
   0.87526752  0.48824901  0.25176357
   0.87567507  0.51002604  0.74454628
   0.37605244  0.24899843  0.01133723
   0.87315989  0.25066749  0.01454701
   0.87480980  0.74292477  0.74936807
   0.52730177  0.12687239  0.46768591
   0.99630382  0.12629510  0.74401966
   0.48927972  0.12542382  0.27525292
   0.50201604  0.12409890  0.76137891
   0.50261210  0.62411595  0.75815395
   0.00203273  0.37503593  0.00542629
   0.00428243  0.87480058  0.00235203
   0.98216122  0.87551042  0.49880953
   0.50569349  0.37302931  0.01541345
   0.50645158  0.87453668  0.01374045
   0.01301999  0.37349793  0.24754208
   0.25879200  0.62467772  0.00304379
   0.72895538  0.12616031  0.49716025
   0.24697045  0.62431645  0.74947215
   0.75125883  0.12485136  0.74647043
   0.26204009  0.37302908  0.49332093
   0.26414768  0.87621881  0.49946680
   0.23708294  0.37370460  0.25769256
   0.00005818  0.00327870  0.12703472
   0.00354862  0.99781824  0.62351775
   0.00106298  0.50967288  0.12547910
   0.49710898  0.01917233  0.12659329
   0.49615686  0.01071623  0.62674838
   0.50289736  0.51290262  0.12794041
   0.51061578  0.50686879  0.62434678
   0.00229496  0.49567358  0.37620884
   0.99326519  0.49640117  0.87311456
   0.49987473  0.97411324  0.37052931
   0.51603343  0.98731902  0.87564816
   0.01394557  0.24467118  0.12788730
   0.00653306  0.25846509  0.62136973
   0.51694626  0.22909472  0.12791432
   0.50929476  0.23148874  0.62056466
   0.49552228  0.73473855  0.12707963
   0.98773514  0.25079352  0.87502867
   0.99355942  0.75086743  0.37522255
   0.00112090  0.75162353  0.87414483
   0.48466482  0.27350941  0.37331571
   0.49188234  0.26369688  0.87444970
   0.49325517  0.76489579  0.37474951
   0.49858571  0.76024499  0.87467107
   0.24269058  0.49255057  0.12486535
   0.74507439  0.00483275  0.12808398
   0.74886752  0.99878146  0.62327559
   0.25207782  0.00158036  0.37409676
   0.24139522  0.99331918  0.87482052
   0.24953404  0.51244536  0.37496678
   0.26182319  0.49844065  0.87377973
   0.74771474  0.50559066  0.37511172
   0.75442064  0.50599941  0.87459048
   0.25157515  0.75461525  0.12521057
   0.24885457  0.75105321  0.62482580
   0.74378977  0.25875648  0.62310322
   0.75241264  0.74809288  0.12643751
   0.74721697  0.74902525  0.62446572
   0.26134485  0.24283002  0.37356929
   0.25892664  0.25136245  0.87527880
   0.76975775  0.24539531  0.37400344
   0.76060392  0.24487514  0.87740868
   0.12544808  0.00426798  0.00274584
   0.12454923  0.98794079  0.49713559
   0.12385725  0.48947257  0.49082814
   0.62473059  0.00421359  0.00814968
   0.62936555  0.97559437  0.49977619
   0.62670797  0.48523995  0.49674218
   0.12650516  0.00061289  0.74713113
   0.12403731  0.51239452  0.25056567
   0.12374423  0.49189010  0.76465390
   0.62426618  0.99496460  0.74130815
   0.62499429  0.50896011  0.25122989
   0.62694929  0.49064758  0.75763794
   0.12443027  0.24829855  0.98891982
   0.12332385  0.26092350  0.48959836
   0.12493288  0.74100253  0.00073720
   0.12408285  0.76403331  0.49540046
   0.62593151  0.24680817  0.98775397
   0.12377388  0.23194118  0.26346523
   0.12348543  0.75466342  0.75149552
   0.62624917  0.75512121  0.75101940
   0.37321398  0.02455469  0.49444713
   0.37358203  0.49202593  0.00982483
   0.87508818  0.02279124  0.50920584
   0.87452830  0.49507862  0.00110987
   0.37719302  0.99106844  0.25125848
   0.37519354  0.49900000  0.73835609
   0.87289605  0.99093343  0.24439132
   0.87422253  0.99352808  0.74374424
   0.38022872  0.23089543  0.50393008
   0.37642051  0.75986621  0.00244475
   0.37790391  0.73434638  0.50177725
   0.87466761  0.23528418  0.51226379
   0.87197427  0.75797926  0.99909585
   0.87238615  0.73221436  0.50347178
   0.37879286  0.26168970  0.23681602
   0.37692337  0.24854931  0.74334738
   0.37724325  0.75686824  0.24695916
   0.37532868  0.75357246  0.74808154
   0.87246288  0.26508401  0.23718430
   0.87431246  0.25375779  0.74038344
   0.87310151  0.75740219  0.24882194
   0.00094429  0.12717767  0.00118230
   0.01366558  0.12635641  0.50790502
   0.99053670  0.62510912  0.99329946
   0.01431072  0.62730803  0.49213498
   0.50219282  0.12428203  0.98795494
   0.48699739  0.62636714  0.99209000
   0.51625241  0.62597114  0.48773151
   0.98317348  0.12799250  0.24618706
   0.99030575  0.62306665  0.25830920
   0.01245307  0.62469289  0.75662390
   0.49206979  0.62584865  0.26462419
   0.98756614  0.37433213  0.49911261
   0.48657427  0.37043746  0.51459935
   0.48016950  0.87708564  0.50980874
   0.99440181  0.37476559  0.75039045
   0.00259751  0.87618787  0.25103944
   0.99960727  0.87567398  0.74733068
   0.51579505  0.37019233  0.23389782
   0.49661774  0.37248131  0.73487318
   0.50774434  0.87665512  0.23117150
   0.50171309  0.87460030  0.74409893
   0.24807530  0.12460170  0.99220197
   0.23394982  0.12543595  0.49612709
   0.23762117  0.62676155  0.50529650
   0.74558634  0.12608990  0.00385362
   0.76420115  0.62547457  0.00416192
   0.73346105  0.62667860  0.50103546
   0.26538696  0.12650978  0.25204941
   0.25134216  0.12462699  0.75852510
   0.25874042  0.62320317  0.23997169
   0.76890073  0.12718800  0.24906120
   0.75734806  0.62495648  0.24770476
   0.73753766  0.62513095  0.74797153
   0.24666132  0.37556930  0.99677411
   0.24196158  0.87346314  0.00354715
   0.74496842  0.37469638  0.98845810
   0.76888069  0.37331722  0.49202143
   0.74118171  0.87474596  0.01037759
   0.77252791  0.87709769  0.50363408
   0.25528939  0.37560551  0.75636172
   0.24731711  0.87579044  0.25147687
   0.24675171  0.87318504  0.74529192
   0.73344708  0.37379418  0.26503457
   0.75730972  0.37414801  0.75830572
   0.73946682  0.87653679  0.24330951
   0.75134316  0.87530023  0.74330717
 
 position of ions in cartesian coordinates  (Angst):
   9.35200325  1.90326132  5.49237554
  15.35124592 15.35213096 15.34935602
  15.39996331 15.30268871  7.61734738
   0.09184825  7.64691103 15.38989052
  15.34719195  7.78012280  7.82575851
   7.62910890 15.32146056  0.00042935
   7.73175116  0.10003276  7.67538086
   7.77686579  7.62219605 15.37432089
   7.60256829  7.66676903  7.64863836
   0.09307573  0.05796314  3.95400757
   0.01952675  0.12009339 11.67831614
  15.33179998  7.59973441  3.88025071
  15.32229535  7.70709650 11.44382380
   7.77727911  0.12341929  3.87037534
   7.59800942  0.07444330 11.60282685
   7.61293912  7.64111655  3.97686581
   7.73221029  7.74949403 11.70917250
  15.35613869  3.97302924  0.03849502
  15.39741967  3.83275875  7.58053705
  15.39678268 11.69112043  0.09755355
  15.37083695 11.68621949  7.80293485
   7.64061016  3.97137217  0.02543808
   7.87180782  3.73034821  7.63590713
   7.82292793 11.65868375  0.00362118
   7.82697636 11.60137344  7.84940367
  15.40799255  3.98375469  3.94286031
   0.09849198  3.74577938 11.53951600
   0.10130307 11.53665791  3.75379252
  15.31815041 11.57925762 11.46427463
   7.81681911  3.72581812  3.88627408
   7.82146097  3.73525265 11.57925898
   7.81521158 11.58190833  3.87955656
   7.74422488 11.42418547 11.47811007
   3.94960135 15.39588825  0.08493701
   3.88854732 15.34750121  7.80632278
   3.76635119  7.83116924 15.38920703
   3.94553309  7.63160878  7.81246424
  11.67109327 15.42424108 15.35119829
  11.57198359  0.12970058  7.64623154
  11.44222019  7.72554529  0.07910797
  11.66968564  7.71031573  7.80248208
   3.75756349  0.04460451  3.75340493
   3.97593203 15.39298859 11.47913386
   3.94078503  7.57580250  3.88313361
   3.81339803  7.80154853 11.42805969
  11.50187927  0.02312306  3.96038386
  11.54105553  0.10222712 11.67998188
  11.65632023  7.68497244  3.74968507
  11.68780527  7.69287373 11.45759054
   3.96750878  3.87249004  0.09568482
   3.92117134  3.95900109  7.78722871
   3.88917193 11.44921583 15.33368889
   3.90234646 11.67052430  7.60847687
  11.67164241  3.87207026  0.13269870
  11.44041303  3.78244821  7.66987580
  11.43887250 11.55777297 15.34285914
  11.44146575 11.63831629  7.63082414
   3.85104392  3.96749787  3.75378955
   3.75994021  3.87734148 11.47092361
   3.76306452 11.52796218  3.95090933
   3.82725680 11.44119146 11.67373662
  11.43046716  3.86798566  3.75392508
  11.48367880  3.74131421 11.60451231
  11.49931334 11.56908520  3.96805545
  11.68368539 11.58388115 11.67942532
   0.16015473  7.75505569  9.63704197
  15.33018624  0.09948480  5.80058815
  15.41308507  0.03563150 13.47199206
   7.69880248  7.48745093  5.78849738
   7.60495967  7.52925734 13.49888756
  15.40158857 11.48589873  1.94155404
   0.02728838 11.50845464  9.62735046
   7.76250388 11.45412935  9.63322428
  15.22648307  3.81618720  5.80501942
   3.91181994  0.05164899  1.92634922
   3.92491494  0.06849380  9.64692645
   3.67370520  7.62563630  9.64858421
  11.55494132  7.57312264  1.94388929
  11.49847622  7.62836554  9.63367584
  11.63703138  0.00738027  5.79417562
  11.51096679 15.38870423 13.49400592
   3.68995429  3.84933133  1.93743879
   3.80592285  3.85257248  9.63378975
  11.29216362  3.97471973  1.97650142
   3.93271436 11.50367992  5.77912369
   3.88706912 11.59836871 13.50481069
  11.60561708 11.62292534  5.77492853
  11.54211056 11.62106136 13.51255066
   1.92027274  7.80401876 15.32263134
   9.65132541  7.85903958 15.38339495
   1.91970337  0.15158134  3.88794863
   9.63425605  0.31239878  4.01481005
   9.66590793  4.14902507  7.47017279
   9.63111986 11.39022686  0.05287218
   9.63974269 11.88284274  7.65618805
   1.92204176  3.88419524 11.65494177
   1.93062595 11.49286659  3.88963011
   9.64388339  3.52717488  4.24301434
   9.65909305  3.91188864 11.65297138
   9.60339625 11.49182821  3.87919306
   5.80202283 15.38070975 15.32019564
   5.80888061  7.88763778  7.79315727
  13.45739839 15.41782349  0.03554651
  13.51284090  7.92272255  7.73535323
   5.79528880 15.37089836 11.71960094
   5.77683989  7.52828595  3.81960500
  13.50216644  7.53189081  3.88378815
  13.50845351  7.86783058 11.48561736
   5.80110934  3.84113219  0.17489180
  13.46965341  3.86687973  0.22440697
  13.49510547 11.46060337 11.55999992
   8.13433162  1.95717555  7.21467763
  15.36931244  1.94826995 11.47749352
   7.54779094  1.93482929  4.24614261
   7.74426562  1.91439073 11.74528303
   7.75346063  9.62781925 11.69553377
   0.03135763  5.78542846  0.08370769
   0.06606212 13.49496327  0.03628317
  15.15114401 13.50591355  7.69480089
   7.80099518  5.75447359  0.23777304
   7.81268975 13.49089233  0.21196477
   0.20085073  5.76170276  3.81866604
   3.99221101  9.63648531  0.04695444
  11.24510692  1.94619074  7.66935852
   3.80984785  9.63091213 11.56160550
  11.58916734  1.92599833 11.51530000
   4.04231724  5.75447013  7.61013200
   4.07482959 13.51684137  7.70494018
   3.65731994  5.76489084  3.97525074
   0.00089755  0.05057827  1.95967962
   0.05474217 15.39267441  9.61859116
   0.01639784  7.86238250  1.93568220
   7.66856762  0.29575869  1.95286995
   7.65387995  0.16531214  9.66842791
   7.75786119  7.91220562  1.97365104
   7.87692810  7.81912567  9.63138015
   0.03540288  7.64642464  5.80352205
  15.32243752  7.65764871 13.46895414
   7.71123306 15.02699324  5.71590776
   7.96050251 15.23071006 13.50803831
   0.21512899  3.77437865  1.97283189
   0.10078113  3.98716810  9.58545512
   7.97458411  3.53409105  1.97324870
   7.85654950  3.57102192  9.57303588
   7.64409070 11.33432004  1.96037236
  15.23712926  3.86882385 13.49848187
  15.32697647 11.58312946  5.78830728
   0.01729142 11.59479331 13.48484742
   7.47659999  4.21924665  5.75889174
   7.58793974  4.06787536 13.48955045
   7.60911752 11.79953559  5.78100993
   7.69134816 11.72779085 13.49296551
   3.74382518  7.59824817  1.92621429
  11.49376409  0.07455157  1.97586590
  11.55227817 15.40753347  9.61485551
   3.88863592  0.02437911  5.77094043
   3.72384259 15.32327039 13.49527098
   3.84939470  7.90515179  5.78436161
   4.03897121  7.68911048 13.47921527
  11.53449508  7.79940888  5.78659756
  11.63794253  7.80571438 13.49172216
   3.88088160 11.64094466  1.93153964
   3.83891298 11.58599541  9.63876965
  11.47394718  3.99166317  9.61219649
  11.60696647 11.54032834  1.95046682
  11.52681630 11.55471137  9.63321493
   4.03159219  3.74597630  5.76280348
   3.99428803  3.87760040 13.50234048
  11.87453791  3.78554923  5.76950089
  11.73332777  3.77752501 13.53519675
   1.93520355  0.06583935  0.04235822
   1.92133770 15.24030159  7.66897813
   1.91066289  7.55076594  7.57167736
   9.63730080  0.06500017  0.12571959
   9.70880126 15.04984173  7.70971287
   9.66780458  7.48547210  7.66290934
   1.95151042  0.00945459 11.52549206
   1.91344059  7.90436743  3.86530896
   1.90891951  7.58805943 11.79580420
   9.63013668 15.34865320 11.43566489
   9.64136886  7.85138712  3.87555549
   9.67152722  7.56889203 11.68757367
   1.91950258  3.83033561 15.25540453
   1.90243450  4.02509221  7.55270640
   1.92725589 11.43095028  0.01137230
   1.91414314 11.78623075  7.64221148
   9.65582667  3.80734456 15.23741964
   1.90937690  3.57800134  4.06430179
   1.90492707 11.64168779 11.59281862
   9.66072702 11.64874971 11.58547384
   5.75732246  0.37878876  7.62750505
   5.76300010  7.59015480  0.15156105
  13.49939987  0.35158529  7.85517785
  13.49076307  7.63724666  0.01712120
   5.81870431 15.28854974  3.87599650
   5.78785967  7.69773910 11.39012551
  13.46558340 15.28646709  3.77006133
  13.48604618 15.32649306 11.47324479
   5.86553406  3.56186941  7.77379215
   5.80678738 11.72194772  0.03771349
   5.82967073 11.32827038  7.74058202
  13.49291202  3.62957171  7.90235075
  13.45136368 11.69283896 15.41238325
  13.45771747 11.29538107  7.76672234
   5.84338401  4.03691200  3.65320237
   5.81454467  3.83420397 11.46712267
   5.81947919 11.67570004  3.80967378
   5.78994449 11.62485826 11.54015338
  13.45890119  4.08927366  3.65888359
  13.48743342  3.91455173 11.42140002
  13.46875291 11.68393692  3.83840965
   0.01456697  1.96188486  0.01823850
   0.21080980  1.94921580  7.83511103
  15.28034693  9.64314014 15.32296633
   0.22076185  9.67706137  7.59183717
   7.74699269  1.91721568 15.24051992
   7.51258298  9.66254683 15.30430869
   7.96388059  9.65643802  7.52390774
  15.16675951  1.97445466  3.79776300
  15.27678433  9.61163239  3.98476318
   0.19210524  9.63671928 11.67193079
   7.59083145  9.65454839  4.08218036
  15.23452223  5.77457129  7.69947638
   7.50605573  5.71449089  7.93837998
   7.40725362 13.53021345  7.86447835
  15.33997153  5.78125805 11.57577145
   0.04006999 13.51636417  3.87261755
  15.42027268 13.50843666 11.52857041
   7.95682521  5.71070938  3.60818513
   7.66098962  5.74601993 11.33639699
   7.83263228 13.52357200  3.56612812
   7.73959213 13.49187369 11.47871634
   3.82689174  1.92214702 15.30603600
   3.60898733  1.93501642  7.65342073
   3.66562277  9.66863117  7.79487111
  11.50166168  1.94510454  0.05944715
  11.78881986  9.64877776  0.06420314
  11.31461299  9.66735144  7.72913878
   4.09394704  1.95158168  3.88819760
   3.87728731  1.92253713 11.70125920
   3.99141537  9.61373845  3.70188269
  11.86131719  1.96204421  3.84210054
  11.68310192  9.64078551  3.82117561
  11.37750008  9.64347691 11.53845644
   3.80507917  5.79365640 15.37656742
   3.73257948 13.47433158  0.05471944
  11.49212951  5.78019032 15.24828186
  11.86100808  5.75891500  7.59008538
  11.43371439 13.49412080  0.16008814
  11.91727127 13.53039933  7.76922606
   3.93817864  5.79421491 11.66788621
   3.81519555 13.51023328  3.87936551
   3.80647361 13.47004147 11.49711988
  11.31439749  5.76627281  4.08851104
  11.68251041  5.77173104 11.69787505
  11.40725997 13.52174659  3.75337305
  11.59046835 13.50267112 11.46650246
 


--------------------------------------------------------------------------------------------------------


 k-point  1 :   0.2500 0.2500 0.2500  plane waves:   93161
 k-point  2 :  -0.2500 0.2500 0.2500  plane waves:   93161
 k-point  3 :   0.2500-0.2500 0.2500  plane waves:   93161
 k-point  4 :  -0.2500-0.2500 0.2500  plane waves:   93161

 maximum and minimum number of plane-waves per node :     11686    11606

 maximum number of plane-waves:     93161
 maximum index in each direction: 
   IXMAX=   28   IYMAX=   28   IZMAX=   27
   IXMIN=  -28   IYMIN=  -28   IZMIN=  -28


 real space projection operators:
  total allocation   :     105608.02 KBytes
  max/ min on nodes  :      13236.34      13168.36


 parallel 3D FFT for wavefunctions:
    minimum data exchange during FFTs selected (reduces bandwidth)
 parallel 3D FFT for charge:
    minimum data exchange during FFTs selected (reduces bandwidth)


 total amount of memory used by VASP MPI-rank0   291495. kBytes
=======================================================================

   base      :      30000. kBytes
   nonlr-proj:      49460. kBytes
   fftplans  :      27976. kBytes
   grid      :      34041. kBytes
   one-center:       1026. kBytes
   wavefun   :     148992. kBytes
 
     INWAV:  cpu time   59.8223: real time   60.2358
 Broyden mixing: mesh for mixing (old mesh)
   NGX = 57   NGY = 57   NGZ = 57
  (NGX  =240   NGY  =240   NGZ  =240)
  gives a total of 185193 points

 charge density for first step will be calculated from the start-wavefunctions


--------------------------------------------------------------------------------------------------------


 Maximum index for non-local projection operator          967
 Maximum index for augmentation-charges         3290 (set IRDMAX)


--------------------------------------------------------------------------------------------------------


 initial charge from wavefunction
 First call to EWALD:  gamma=   0.115
 Maximum number of real-space cells 3x 3x 3
 Maximum number of reciprocal cells 3x 3x 3

    FEWALD:  cpu time    0.0169: real time    0.0175


--------------------------------------- Iteration      1(   1)  ---------------------------------------


    POTLOK:  cpu time    0.2742: real time    0.2840
    SETDIJ:  cpu time    1.2166: real time    1.3755
     EDDAV:  cpu time  131.4965: real time  132.2310
       DOS:  cpu time    0.0029: real time    0.0104
    CHARGE:  cpu time    5.3075: real time    5.3119
    MIXING:  cpu time    0.0476: real time    0.0503
    --------------------------------------------
      LOOP:  cpu time  138.3453: real time  139.2632

 eigenvalue-minimisations  : 22680
 total energy-change (2. order) :-0.1758146E+04  (-0.7283660E-06)
 number of electron    1923.0000031 magnetization       1.0000000
 augmentation part      496.7373624 magnetization       0.5814091

 Broyden mixing:
  rms(total) = 0.57215E-03    rms(broyden)= 0.54790E-03
  rms(prec ) = 0.64732E-03
  weight for this iteration     100.00

 Free energy of the ion-electron system (eV)
  ---------------------------------------------------
  alpha Z        PSCENC =      6118.73324990
  Ewald energy   TEWEN  =   -103749.88082109
  -Hartree energ DENC   =    -64883.81429961
  -exchange      EXHF   =         0.00000000
  -V(xc)+E(xc)   XCENC  =      8965.94600356
  PAW double counting   =    196421.59023715  -197425.84273701
  entropy T*S    EENTRO =        -0.00000000
  eigenvalues    EBANDS =    -25782.13044025
  atomic energy  EATOM  =    178577.25249613
  Solvation  Ediel_sol  =         0.00000000
  ---------------------------------------------------
  free energy    TOTEN  =     -1758.14631122 eV

  energy without entropy =    -1758.14631122  energy(sigma->0) =    -1758.14631122


--------------------------------------------------------------------------------------------------------




--------------------------------------- Iteration      1(   2)  ---------------------------------------


    POTLOK:  cpu time    0.3153: real time    0.3179
    SETDIJ:  cpu time    1.3986: real time    1.4000
     EDDAV:  cpu time  122.7105: real time  123.5974
       DOS:  cpu time    0.0019: real time    0.0019
    --------------------------------------------
      LOOP:  cpu time  124.4263: real time  125.3172

 eigenvalue-minimisations  : 20760
 total energy-change (2. order) : 0.4284084E-06  (-0.5950397E-06)
 number of electron    1923.0000031 magnetization       1.0000000
 augmentation part      496.7373624 magnetization       0.5814091

 Free energy of the ion-electron system (eV)
  ---------------------------------------------------
  alpha Z        PSCENC =      6118.73324990
  Ewald energy   TEWEN  =   -103749.88082109
  -Hartree energ DENC   =    -64883.81717351
  -exchange      EXHF   =         0.00000000
  -V(xc)+E(xc)   XCENC  =      8965.94609371
  PAW double counting   =    196421.57974400  -197425.83244792
  entropy T*S    EENTRO =        -0.00000000
  eigenvalues    EBANDS =    -25782.12745202
  atomic energy  EATOM  =    178577.25249613
  Solvation  Ediel_sol  =         0.00000000
  ---------------------------------------------------
  free energy    TOTEN  =     -1758.14631080 eV

  energy without entropy =    -1758.14631080  energy(sigma->0) =    -1758.14631080


--------------------------------------------------------------------------------------------------------




 average (electrostatic) potential at core
  the test charge radii are     0.7079  1.0397  0.7215  0.7167
  (the norm of the test charge is              1.0000)
       1 -63.2693       2 -58.4734       3 -58.8601       4 -58.8229       5 -58.8805
       6 -58.8448       7 -57.3630       8 -58.5321       9 -58.7432      10 -58.8881
      11 -58.6188      12 -58.9924      13 -58.8471      14 -59.3664      15 -58.8314
      16 -58.8053      17 -58.7237      18 -58.9297      19 -59.5599      20 -58.6117
      21 -58.9021      22 -58.7080      23 -59.2539      24 -58.8738      25 -58.9155
      26 -59.1715      27 -58.7318      28 -58.7099      29 -58.8802      30 -59.4796
      31 -58.9472      32 -59.5056      33 -58.8081      34 -58.8245      35 -58.7887
      36 -58.7249      37 -58.4618      38 -58.7003      39 -59.1808      40 -58.7392
      41 -58.9404      42 -58.8385      43 -58.7893      44 -58.8012      45 -58.6157
      46 -59.2803      47 -58.8170      48 -58.8901      49 -58.8683      50 -58.8049
      51 -58.6977      52 -58.7037      53 -58.8154      54 -59.0171      55 -59.1908
      56 -58.8760      57 -59.0618      58 -58.8174      59 -58.7749      60 -58.7637
      61 -58.7218      62 -59.2307      63 -58.9029      64 -59.1715      65 -58.8984
      66 -74.1480      67 -73.9973      68 -73.8276      69 -73.8750      70 -73.8149
      71 -73.8684      72 -74.0113      73 -74.2233      74 -74.5618      75 -73.9444
      76 -73.9371      77 -73.9113      78 -74.0076      79 -74.0164      80 -74.3325
      81 -74.0439      82 -73.9550      83 -73.8908      84 -74.4780      85 -73.9172
      86 -73.8920      87 -74.2308      88 -74.0914      89 -73.8926      90 -73.8447
      91 -74.0612      92 -74.3536      93 -74.4677      94 -74.1565      95 -74.2343
      96 -73.9565      97 -73.9694      98 -74.5404      99 -74.0478     100 -74.3787
     101 -73.9515     102 -73.8028     103 -73.8572     104 -73.9627     105 -74.1274
     106 -73.9557     107 -74.0647     108 -74.1241     109 -73.9288     110 -74.0969
     111 -74.1827     112 -74.2188     113 -74.0517     114 -74.6043     115 -74.0196
     116 -73.9589     117 -73.9631     118 -73.7781     119 -74.2028     120 -73.8386
     121 -73.9615     122 -74.3441     123 -74.0185     124 -74.4363     125 -74.0077
     126 -74.1748     127 -73.7941     128 -73.8786     129 -74.1039     130 -78.3818
     131 -78.3777     132 -79.1562     133 -79.6002     134 -79.2142     135 -78.2703
     136 -78.2484     137 -79.0123     138 -78.9373     139 -79.3797     140 -79.3611
     141 -79.1319     142 -79.0547     143 -79.5785     144 -79.5000     145 -79.3575
     146 -79.1464     147 -78.4079     148 -78.3715     149 -79.6302     150 -79.2978
     151 -79.2012     152 -79.0372     153 -79.0191     154 -78.6637     155 -78.6616
     156 -78.3695     157 -78.3595     158 -78.8230     159 -78.7673     160 -78.4447
     161 -78.4315     162 -78.3718     163 -78.3311     164 -79.3793     165 -78.5628
     166 -78.6027     167 -78.3874     168 -78.3217     169 -79.2509     170 -79.1110
     171 -78.3214     172 -79.3201     173 -78.2882     174 -78.3197     175 -79.2695
     176 -78.2542     177 -78.9084     178 -78.3719     179 -78.8644     180 -78.9461
     181 -78.4427     182 -78.8595     183 -78.3766     184 -79.2911     185 -79.0210
     186 -79.0457     187 -78.4001     188 -79.2304     189 -78.9682     190 -78.9997
     191 -79.0887     192 -78.3149     193 -79.4716     194 -78.2256     195 -78.6992
     196 -79.0081     197 -78.6609     198 -79.0961     199 -79.0390     200 -78.9305
     201 -78.9524     202 -79.2747     203 -78.8667     204 -78.9375     205 -79.1239
     206 -78.4336     207 -78.5649     208 -79.1700     209 -79.2076     210 -78.4684
     211 -78.6430     212 -78.3170     213 -79.2031     214 -78.3096     215 -79.0296
     216 -78.2891     217 -78.3023     218 -79.0419     219 -79.0241     220 -78.9793
     221 -79.1917     222 -79.2977     223 -79.3452     224 -78.8598     225 -79.0403
     226 -79.0000     227 -79.0962     228 -78.9605     229 -79.1663     230 -78.4303
     231 -79.2840     232 -78.3711     233 -79.0547     234 -78.2324     235 -78.2229
     236 -79.4095     237 -79.3693     238 -79.1801     239 -78.9506     240 -79.0718
     241 -78.8696     242 -79.6873     243 -79.5538     244 -79.2220     245 -78.8422
     246 -78.8651     247 -79.4142     248 -79.0785     249 -79.3695     250 -79.0785
     251 -78.8860     252 -79.0684     253 -78.8801     254 -79.6568     255 -79.0148
     256 -79.6615     257 -79.0409
 
 
 
 E-fermi :  -0.6844     XC(G=0):  -9.0602     alpha+bet : -7.7421


 spin component 1

 k-point     1 :       0.2500    0.2500    0.2500
  band No.  band energies     occupation 
      1     -43.9392      1.00000
      2     -35.5146      1.00000
      3     -35.5050      1.00000
      4     -35.4869      1.00000
      5     -35.4653      1.00000
      6     -35.4554      1.00000
      7     -35.3850      1.00000
      8     -35.3714      1.00000
      9     -35.3528      1.00000
     10     -35.3232      1.00000
     11     -35.3128      1.00000
     12     -35.2732      1.00000
     13     -35.2689      1.00000
     14     -35.2669      1.00000
     15     -35.2449      1.00000
     16     -35.1975      1.00000
     17     -35.1971      1.00000
     18     -35.1876      1.00000
     19     -35.1845      1.00000
     20     -35.1551      1.00000
     21     -35.1358      1.00000
     22     -35.1210      1.00000
     23     -35.1203      1.00000
     24     -35.0984      1.00000
     25     -35.0910      1.00000
     26     -35.0778      1.00000
     27     -35.0718      1.00000
     28     -35.0713      1.00000
     29     -35.0591      1.00000
     30     -35.0527      1.00000
     31     -35.0467      1.00000
     32     -35.0268      1.00000
     33     -35.0264      1.00000
     34     -35.0130      1.00000
     35     -35.0096      1.00000
     36     -34.9912      1.00000
     37     -34.9805      1.00000
     38     -34.9682      1.00000
     39     -34.9404      1.00000
     40     -34.9388      1.00000
     41     -34.9332      1.00000
     42     -34.9327      1.00000
     43     -34.9253      1.00000
     44     -34.9250      1.00000
     45     -34.9224      1.00000
     46     -34.9054      1.00000
     47     -34.9048      1.00000
     48     -34.9046      1.00000
     49     -34.9033      1.00000
     50     -34.8968      1.00000
     51     -34.8953      1.00000
     52     -34.8912      1.00000
     53     -34.8876      1.00000
     54     -34.8857      1.00000
     55     -34.8812      1.00000
     56     -34.8770      1.00000
     57     -34.8751      1.00000
     58     -34.8533      1.00000
     59     -34.8526      1.00000
     60     -34.8463      1.00000
     61     -34.8441      1.00000
     62     -34.8312      1.00000
     63     -34.8309      1.00000
     64     -34.8302      1.00000
     65     -34.8271      1.00000
     66     -34.8200      1.00000
     67     -34.8130      1.00000
     68     -34.8114      1.00000
     69     -34.8085      1.00000
     70     -34.8081      1.00000
     71     -34.8066      1.00000
     72     -34.8045      1.00000
     73     -34.8039      1.00000
     74     -34.8025      1.00000
     75     -34.8002      1.00000
     76     -34.7926      1.00000
     77     -34.7920      1.00000
     78     -34.7892      1.00000
     79     -34.7860      1.00000
     80     -34.7821      1.00000
     81     -34.7768      1.00000
     82     -34.7742      1.00000
     83     -34.7741      1.00000
     84     -34.7716      1.00000
     85     -34.7710      1.00000
     86     -34.7705      1.00000
     87     -34.7609      1.00000
     88     -34.7586      1.00000
     89     -34.7574      1.00000
     90     -34.7556      1.00000
     91     -34.7528      1.00000
     92     -34.7518      1.00000
     93     -34.7503      1.00000
     94     -34.7462      1.00000
     95     -34.7402      1.00000
     96     -34.7392      1.00000
     97     -34.7375      1.00000
     98     -34.7373      1.00000
     99     -34.7362      1.00000
    100     -34.7348      1.00000
    101     -34.7312      1.00000
    102     -34.7298      1.00000
    103     -34.7290      1.00000
    104     -34.7256      1.00000
    105     -34.7247      1.00000
    106     -34.7227      1.00000
    107     -34.7215      1.00000
    108     -34.7196      1.00000
    109     -34.7163      1.00000
    110     -34.7141      1.00000
    111     -34.7119      1.00000
    112     -34.7115      1.00000
    113     -34.7085      1.00000
    114     -34.7074      1.00000
    115     -34.7006      1.00000
    116     -34.6986      1.00000
    117     -34.6975      1.00000
    118     -34.6974      1.00000
    119     -34.6946      1.00000
    120     -34.6885      1.00000
    121     -34.6874      1.00000
    122     -34.6865      1.00000
    123     -34.6833      1.00000
    124     -34.6826      1.00000
    125     -34.6796      1.00000
    126     -34.6766      1.00000
    127     -34.6754      1.00000
    128     -34.6687      1.00000
    129     -34.6677      1.00000
    130     -34.6651      1.00000
    131     -34.6629      1.00000
    132     -34.6586      1.00000
    133     -34.6572      1.00000
    134     -34.6569      1.00000
    135     -34.6532      1.00000
    136     -34.6493      1.00000
    137     -34.6449      1.00000
    138     -34.6442      1.00000
    139     -34.6415      1.00000
    140     -34.6378      1.00000
    141     -34.6372      1.00000
    142     -34.6368      1.00000
    143     -34.6357      1.00000
    144     -34.6335      1.00000
    145     -34.6296      1.00000
    146     -34.6265      1.00000
    147     -34.6259      1.00000
    148     -34.6201      1.00000
    149     -34.6195      1.00000
    150     -34.6178      1.00000
    151     -34.6112      1.00000
    152     -34.6051      1.00000
    153     -34.6037      1.00000
    154     -34.6023      1.00000
    155     -34.5982      1.00000
    156     -34.5941      1.00000
    157     -34.5838      1.00000
    158     -34.5810      1.00000
    159     -34.5804      1.00000
    160     -34.5775      1.00000
    161     -34.5719      1.00000
    162     -34.5713      1.00000
    163     -34.5683      1.00000
    164     -34.5668      1.00000
    165     -34.5652      1.00000
    166     -34.5553      1.00000
[...]
   81        1.574   3.461   0.000   5.035
   82        1.575   3.457   0.000   5.032
   83        1.574   3.457   0.000   5.031
   84        1.576   3.463   0.000   5.039
   85        1.575   3.461   0.000   5.036
   86        1.575   3.465   0.000   5.039
   87        1.576   3.461   0.000   5.037
   88        1.574   3.464   0.000   5.039
   89        1.574   3.459   0.000   5.034
   90        1.575   3.455   0.000   5.030
   91        1.574   3.461   0.000   5.035
   92        1.568   3.466   0.000   5.034
   93        1.577   3.462   0.000   5.038
   94        1.577   3.469   0.000   5.046
   95        1.576   3.465   0.000   5.041
   96        1.574   3.461   0.000   5.035
   97        1.575   3.464   0.000   5.039
   98        1.568   3.476   0.000   5.044
   99        1.575   3.461   0.000   5.036
  100        1.576   3.457   0.000   5.033
  101        1.574   3.456   0.000   5.030
  102        1.575   3.454   0.000   5.028
  103        1.575   3.458   0.000   5.033
  104        1.574   3.456   0.000   5.030
  105        1.577   3.470   0.000   5.047
  106        1.574   3.458   0.000   5.033
  107        1.574   3.458   0.000   5.032
  108        1.576   3.471   0.000   5.047
  109        1.574   3.458   0.000   5.032
  110        1.575   3.454   0.000   5.028
  111        1.576   3.471   0.000   5.047
  112        1.566   3.474   0.000   5.040
  113        1.576   3.472   0.000   5.048
  114        1.573   3.470   0.000   5.043
  115        1.575   3.462   0.000   5.036
  116        1.574   3.458   0.000   5.032
  117        1.575   3.459   0.000   5.034
  118        1.575   3.461   0.000   5.037
  119        1.576   3.469   0.000   5.045
  120        1.575   3.454   0.000   5.029
  121        1.574   3.457   0.000   5.031
  122        1.577   3.464   0.000   5.041
  123        1.577   3.471   0.000   5.048
  124        1.573   3.463   0.000   5.036
  125        1.576   3.473   0.000   5.049
  126        1.576   3.470   0.000   5.046
  127        1.574   3.453   0.000   5.027
  128        1.574   3.455   0.000   5.028
  129        1.576   3.466   0.000   5.042
  130        1.737   4.370   0.000   6.106
  131        1.737   4.369   0.000   6.106
  132        1.737   4.378   0.000   6.115
  133        1.738   4.381   0.000   6.119
  134        1.737   4.386   0.000   6.123
  135        1.737   4.364   0.000   6.101
  136        1.736   4.363   0.000   6.100
  137        1.738   4.379   0.000   6.118
  138        1.738   4.380   0.000   6.118
  139        1.739   4.381   0.000   6.120
  140        1.739   4.382   0.000   6.121
  141        1.738   4.377   0.000   6.115
  142        1.737   4.377   0.000   6.114
  143        1.738   4.374   0.000   6.112
  144        1.737   4.377   0.000   6.114
  145        1.738   4.379   0.000   6.117
  146        1.737   4.377   0.000   6.114
  147        1.737   4.369   0.000   6.105
  148        1.736   4.368   0.000   6.104
  149        1.740   4.373   0.000   6.113
  150        1.738   4.380   0.000   6.118
  151        1.738   4.370   0.000   6.108
  152        1.737   4.376   0.000   6.113
  153        1.737   4.380   0.000   6.118
  154        1.737   4.371   0.000   6.108
  155        1.737   4.372   0.000   6.109
  156        1.737   4.369   0.000   6.105
  157        1.737   4.367   0.000   6.104
  158        1.738   4.374   0.000   6.112
  159        1.738   4.374   0.000   6.112
  160        1.737   4.368   0.000   6.105
  161        1.736   4.369   0.000   6.105
  162        1.737   4.369   0.000   6.106
  163        1.736   4.367   0.000   6.103
  164        1.737   4.377   0.000   6.114
  165        1.737   4.369   0.000   6.106
  166        1.736   4.369   0.000   6.105
  167        1.737   4.367   0.000   6.104
  168        1.737   4.367   0.000   6.104
  169        1.738   4.372   0.000   6.111
  170        1.737   4.377   0.000   6.114
  171        1.737   4.370   0.000   6.107
  172        1.737   4.382   0.000   6.120
  173        1.737   4.366   0.000   6.103
  174        1.737   4.370   0.000   6.107
  175        1.738   4.377   0.000   6.115
  176        1.736   4.362   0.000   6.099
  177        1.738   4.379   0.000   6.117
  178        1.736   4.364   0.000   6.101
  179        1.738   4.374   0.000   6.111
  180        1.738   4.378   0.000   6.116
  181        1.736   4.367   0.000   6.104
  182        1.738   4.376   0.000   6.113
  183        1.737   4.365   0.000   6.101
  184        1.737   4.373   0.000   6.110
  185        1.737   4.380   0.000   6.118
  186        1.737   4.375   0.000   6.112
  187        1.737   4.367   0.000   6.104
  188        1.737   4.371   0.000   6.109
  189        1.738   4.381   0.000   6.119
  190        1.738   4.380   0.000   6.119
  191        1.738   4.384   0.000   6.122
  192        1.737   4.368   0.000   6.105
  193        1.739   4.381   0.000   6.119
  194        1.737   4.367   0.000   6.104
  195        1.737   4.368   0.000   6.106
  196        1.737   4.379   0.000   6.116
  197        1.737   4.368   0.000   6.105
  198        1.737   4.380   0.000   6.118
  199        1.737   4.372   0.000   6.109
  200        1.738   4.380   0.000   6.118
  201        1.738   4.374   0.000   6.112
  202        1.738   4.370   0.000   6.108
  203        1.738   4.379   0.000   6.117
  204        1.738   4.371   0.000   6.109
  205        1.737   4.370   0.000   6.107
  206        1.736   4.367   0.000   6.103
  207        1.737   4.367   0.000   6.104
  208        1.737   4.381   0.000   6.118
  209        1.737   4.370   0.000   6.107
  210        1.737   4.369   0.000   6.106
  211        1.737   4.369   0.000   6.106
  212        1.737   4.368   0.000   6.105
  213        1.739   4.369   0.000   6.108
  214        1.736   4.366   0.000   6.103
  215        1.738   4.374   0.000   6.113
  216        1.736   4.364   0.000   6.100
  217        1.736   4.363   0.000   6.099
  218        1.736   4.370   0.000   6.106
  219        1.738   4.375   0.000   6.113
  220        1.738   4.377   0.000   6.114
  221        1.738   4.379   0.000   6.117
  222        1.737   4.374   0.000   6.111
  223        1.737   4.377   0.000   6.114
  224        1.737   4.369   0.000   6.106
  225        1.737   4.377   0.000   6.113
  226        1.738   4.378   0.000   6.116
  227        1.737   4.378   0.000   6.115
  228        1.738   4.377   0.000   6.115
  229        1.737   4.370   0.000   6.107
  230        1.736   4.365   0.000   6.102
  231        1.737   4.370   0.000   6.107
  232        1.736   4.367   0.000   6.103
  233        1.738   4.380   0.000   6.118
  234        1.736   4.365   0.000   6.101
  235        1.736   4.363   0.000   6.100
  236        1.738   4.387   0.000   6.125
  237        1.739   4.384   0.000   6.123
  238        1.737   4.374   0.000   6.111
  239        1.738   4.376   0.000   6.114
  240        1.737   4.380   0.000   6.117
  241        1.738   4.374   0.000   6.111
  242        1.739   4.381   0.000   6.120
  243        1.738   4.385   0.000   6.123
  244        1.738   4.379   0.000   6.116
  245        1.738   4.377   0.000   6.115
  246        1.738   4.377   0.000   6.115
  247        1.738   4.384   0.000   6.123
  248        1.737   4.373   0.000   6.110
  249        1.738   4.384   0.000   6.122
  250        1.738   4.369   0.000   6.107
  251        1.738   4.379   0.000   6.117
  252        1.737   4.379   0.000   6.116
  253        1.738   4.379   0.000   6.117
  254        1.739   4.382   0.000   6.121
  255        1.738   4.376   0.000   6.114
  256        1.738   4.383   0.000   6.121
  257        1.738   4.378   0.000   6.116
--------------------------------------------------
tot        345.2721194.286 111.6481651.206
 


 magnetization (x)
 
# of ion       s       p       d       tot
------------------------------------------
    1       -0.000  -0.000   0.000  -0.000
    2        0.000   0.000   0.000   0.000
    3       -0.000  -0.000   0.000   0.000
    4        0.000   0.000   0.000   0.000
    5       -0.000  -0.000  -0.000  -0.000
    6       -0.000  -0.000   0.000   0.000
    7        0.005   0.006   0.923   0.934
    8        0.000   0.000  -0.000  -0.000
    9       -0.000  -0.000  -0.000  -0.000
   10        0.000   0.000   0.000   0.000
   11        0.000  -0.000   0.000   0.000
   12       -0.000   0.000   0.000   0.000
   13       -0.000   0.000   0.000   0.000
   14       -0.000  -0.000   0.006   0.006
   15       -0.000  -0.000   0.005   0.005
   16       -0.000  -0.000  -0.000  -0.000
   17        0.000  -0.000   0.000   0.000
   18       -0.000  -0.000   0.000  -0.000
   19       -0.000  -0.000   0.000   0.000
   20       -0.000   0.000  -0.000  -0.000
   21        0.000   0.000   0.000   0.000
   22        0.000   0.000   0.000   0.000
   23       -0.000  -0.000  -0.002  -0.003
   24       -0.000  -0.000  -0.000  -0.000
   25       -0.000  -0.000   0.000  -0.000
   26        0.000  -0.000   0.000   0.000
   27       -0.000  -0.000   0.000   0.000
   28       -0.000   0.000  -0.000  -0.000
   29        0.000   0.000   0.000   0.000
   30       -0.000  -0.000  -0.000  -0.000
   31       -0.000  -0.000  -0.000  -0.000
   32       -0.000  -0.000   0.000   0.000
   33        0.000  -0.000   0.000   0.000
   34        0.000   0.000   0.000   0.000
   35       -0.000  -0.000   0.005   0.005
   36        0.000   0.000  -0.000  -0.000
   37        0.000  -0.000  -0.000  -0.000
   38       -0.000  -0.000   0.000   0.000
   39       -0.000  -0.000   0.006   0.006
   40       -0.000   0.000  -0.000  -0.000
   41        0.000  -0.000  -0.000  -0.000
   42        0.000   0.000   0.000   0.000
   43        0.000   0.000   0.003   0.003
   44       -0.000   0.000  -0.000  -0.000
   45       -0.000  -0.000  -0.000  -0.000
   46        0.000   0.000   0.003   0.003
   47        0.000  -0.000   0.000   0.000
   48       -0.000  -0.000  -0.000  -0.000
   49        0.000   0.000   0.000   0.000
   50       -0.000  -0.000   0.000  -0.000
   51       -0.000   0.000   0.000   0.000
   52       -0.000  -0.000   0.000   0.000
   53       -0.000  -0.000   0.000   0.000
   54       -0.000  -0.000   0.000   0.000
   55       -0.000  -0.000  -0.000  -0.000
   56        0.000   0.000   0.000   0.000
   57       -0.000  -0.000   0.000   0.000
   58       -0.000  -0.000   0.000   0.000
   59       -0.000  -0.000   0.000   0.000
   60       -0.000  -0.000  -0.000  -0.000
   61       -0.000  -0.000   0.000   0.000
   62       -0.000  -0.000   0.000   0.000
   63       -0.000  -0.000   0.000   0.000
   64       -0.000  -0.000   0.000   0.000
   65       -0.000  -0.000  -0.000  -0.000
   66       -0.000  -0.000   0.000  -0.000
   67       -0.000  -0.000   0.000  -0.000
   68        0.000   0.000   0.000   0.000
   69        0.000  -0.000   0.000  -0.000
   70       -0.000  -0.000   0.000  -0.000
   71        0.000   0.000   0.000   0.000
   72        0.000  -0.000   0.000  -0.000
   73       -0.000  -0.000   0.000  -0.000
   74       -0.000   0.000   0.000  -0.000
   75        0.000   0.000   0.000   0.000
   76       -0.000  -0.001   0.000  -0.001
   77       -0.000  -0.000   0.000  -0.000
   78        0.000   0.000   0.000   0.000
   79       -0.000  -0.000   0.000  -0.000
   80       -0.000  -0.001   0.000  -0.001
   81        0.000   0.000   0.000   0.000
   82       -0.000  -0.000   0.000  -0.000
   83       -0.000  -0.000   0.000  -0.000
   84        0.000  -0.000   0.000  -0.000
   85       -0.000  -0.000   0.000  -0.000
   86       -0.000  -0.000   0.000  -0.000
   87       -0.000  -0.000   0.000  -0.000
   88        0.000  -0.000   0.000  -0.000
   89       -0.000  -0.000   0.000  -0.000
   90        0.000   0.000   0.000   0.000
   91        0.000   0.000   0.000   0.000
   92       -0.000  -0.001   0.000  -0.001
   93       -0.000  -0.000   0.000  -0.000
   94        0.000  -0.000   0.000  -0.000
   95       -0.000  -0.000   0.000  -0.000
   96       -0.000  -0.000   0.000  -0.000
   97       -0.000  -0.000   0.000  -0.000
   98       -0.000  -0.000   0.000  -0.000
   99       -0.000  -0.000   0.000  -0.000
  100       -0.000  -0.000   0.000  -0.000
  101       -0.000  -0.000   0.000  -0.000
  102        0.000  -0.000   0.000  -0.000
  103        0.000   0.000   0.000   0.000
  104       -0.000  -0.000   0.000  -0.000
  105       -0.000  -0.001   0.000  -0.001
  106        0.000   0.000   0.000   0.000
  107        0.000  -0.000   0.000  -0.000
  108        0.000  -0.000   0.000  -0.000
  109        0.000   0.000   0.000   0.000
  110        0.000  -0.000   0.000  -0.000
  111        0.000  -0.000   0.000   0.000
  112       -0.001  -0.015   0.000  -0.016
  113       -0.000  -0.000   0.000  -0.000
  114       -0.000  -0.000   0.000  -0.000
  115       -0.000  -0.000   0.000  -0.000
  116       -0.000  -0.000   0.000  -0.000
  117       -0.000  -0.000   0.000  -0.000
  118       -0.000  -0.000   0.000  -0.000
  119       -0.000  -0.000   0.000  -0.000
  120       -0.000  -0.000   0.000  -0.000
  121       -0.000  -0.000   0.000  -0.000
  122       -0.000  -0.000   0.000  -0.000
  123       -0.000  -0.000   0.000  -0.000
  124       -0.000  -0.000   0.000  -0.000
  125       -0.000  -0.000   0.000  -0.000
  126       -0.000  -0.000   0.000  -0.000
  127       -0.000  -0.000   0.000  -0.000
  128       -0.000  -0.000   0.000  -0.000
  129       -0.000  -0.000   0.000  -0.000
  130        0.000   0.000   0.000   0.000
  131        0.000  -0.000   0.000  -0.000
  132       -0.000  -0.000   0.000  -0.000
  133       -0.000  -0.000   0.000  -0.000
  134       -0.000   0.002   0.000   0.002
  135       -0.000  -0.000   0.000  -0.000
  136       -0.000  -0.000   0.000  -0.000
  137        0.000   0.000   0.000   0.000
  138       -0.000  -0.000   0.000  -0.000
  139       -0.000   0.002   0.000   0.002
  140       -0.000  -0.000   0.000  -0.000
  141        0.000   0.000   0.000   0.000
  142        0.000   0.000   0.000   0.000
  143       -0.000  -0.000   0.000  -0.000
  144        0.000   0.000   0.000   0.000
  145       -0.000  -0.000   0.000  -0.000
  146       -0.000   0.000   0.000   0.000
  147       -0.000  -0.000   0.000  -0.000
  148       -0.000  -0.000   0.000  -0.000
  149        0.000  -0.000   0.000  -0.000
  150       -0.000  -0.000   0.000  -0.000
  151       -0.000  -0.000   0.000  -0.000
  152       -0.000  -0.000   0.000  -0.000
  153        0.000  -0.000   0.000  -0.000
  154       -0.000   0.000   0.000   0.000
  155        0.000   0.000   0.000   0.000
  156        0.000   0.000   0.000   0.000
  157       -0.000   0.000   0.000   0.000
  158       -0.000  -0.000   0.000  -0.000
  159       -0.000  -0.000   0.000  -0.000
  160       -0.000  -0.000   0.000  -0.000
  161       -0.000  -0.000   0.000  -0.000
  162       -0.000  -0.000   0.000  -0.000
  163       -0.000  -0.000   0.000  -0.000
  164        0.000  -0.000   0.000  -0.000
  165       -0.000  -0.000   0.000  -0.000
  166       -0.000  -0.000   0.000  -0.000
  167        0.000  -0.000   0.000  -0.000
  168       -0.000  -0.000   0.000  -0.000
  169        0.000  -0.000   0.000  -0.000
  170       -0.000  -0.000   0.000  -0.000
  171        0.000   0.000   0.000   0.000
  172       -0.000  -0.000   0.000  -0.000
  173       -0.000  -0.000   0.000  -0.000
  174       -0.000  -0.000   0.000  -0.000
  175       -0.000   0.002   0.000   0.002
  176       -0.000  -0.000   0.000  -0.000
  177       -0.000   0.000   0.000   0.000
  178       -0.000   0.000   0.000   0.000
  179       -0.000  -0.000   0.000  -0.000
  180        0.000   0.000   0.000   0.000
  181       -0.000   0.000   0.000   0.000
  182       -0.000  -0.000   0.000  -0.000
  183       -0.000  -0.000   0.000  -0.000
  184       -0.000  -0.000   0.000  -0.000
  185       -0.000  -0.000   0.000  -0.000
  186       -0.000  -0.000   0.000  -0.000
  187       -0.000   0.000   0.000   0.000
  188       -0.000  -0.000   0.000  -0.000
  189       -0.000  -0.000   0.000  -0.000
  190       -0.000  -0.000   0.000  -0.000
  191       -0.000   0.003   0.000   0.003
  192       -0.000   0.000   0.000   0.000
  193       -0.000  -0.000   0.000  -0.000
  194       -0.000  -0.000   0.000  -0.000
  195        0.000   0.000   0.000   0.000
  196        0.000  -0.000   0.000  -0.000
  197       -0.000   0.000   0.000   0.000
  198        0.000   0.000   0.000   0.000
  199       -0.000  -0.000   0.000  -0.000
  200       -0.000  -0.000   0.000  -0.000
  201       -0.000  -0.000   0.000  -0.000
  202        0.000  -0.000   0.000  -0.000
  203       -0.000  -0.000   0.000  -0.000
  204       -0.000  -0.000   0.000  -0.000
  205       -0.000  -0.000   0.000  -0.000
  206       -0.000  -0.000   0.000  -0.000
  207       -0.000  -0.000   0.000  -0.000
  208       -0.000  -0.000   0.000  -0.000
  209        0.000  -0.000   0.000  -0.000
  210        0.000  -0.000   0.000  -0.000
  211       -0.000  -0.000   0.000  -0.000
  212       -0.000  -0.000   0.000  -0.000
  213       -0.000  -0.000   0.000  -0.000
  214       -0.000   0.000   0.000   0.000
  215        0.000  -0.000   0.000  -0.000
  216       -0.000  -0.000   0.000  -0.000
  217       -0.000  -0.000   0.000  -0.000
  218       -0.000  -0.000   0.000  -0.000
  219       -0.000  -0.000   0.000  -0.000
  220       -0.000  -0.000   0.000  -0.000
  221       -0.000  -0.000   0.000  -0.000
  222       -0.000  -0.000   0.000  -0.000
  223       -0.000  -0.000   0.000  -0.000
  224       -0.000  -0.000   0.000  -0.000
  225       -0.000  -0.005   0.000  -0.006
  226       -0.000  -0.000   0.000  -0.000
  227       -0.000  -0.000   0.000  -0.000
  228       -0.000  -0.000   0.000  -0.000
  229       -0.000  -0.000   0.000  -0.000
  230       -0.000  -0.000   0.000  -0.000
  231       -0.000  -0.000   0.000  -0.000
  232       -0.000  -0.000   0.000  -0.000
  233       -0.000  -0.000   0.000  -0.000
  234       -0.000  -0.000   0.000  -0.000
  235       -0.000  -0.000   0.000  -0.000
  236       -0.000  -0.000   0.000  -0.000
  237       -0.000  -0.000   0.000  -0.000
  238       -0.000  -0.000   0.000  -0.000
  239       -0.000  -0.000   0.000  -0.000
  240       -0.000  -0.000   0.000  -0.000
  241        0.000  -0.000   0.000  -0.000
  242       -0.000  -0.000   0.000  -0.000
  243       -0.000  -0.000   0.000  -0.000
  244       -0.000  -0.000   0.000  -0.000
  245       -0.000  -0.000   0.000  -0.000
  246       -0.000  -0.000   0.000  -0.000
  247       -0.000   0.000   0.000   0.000
  248       -0.000  -0.000   0.000  -0.000
  249       -0.000  -0.000   0.000  -0.000
  250       -0.000  -0.000   0.000  -0.000
  251       -0.000  -0.000   0.000  -0.000
  252       -0.000  -0.000   0.000  -0.000
  253       -0.000  -0.000   0.000  -0.000
  254       -0.000  -0.000   0.000  -0.000
  255       -0.000  -0.000   0.000  -0.000
  256       -0.000  -0.000   0.000  -0.000
  257       -0.000  -0.000   0.000  -0.000
--------------------------------------------------
tot          0.002  -0.010   0.949   0.941
 

 total amount of memory used by VASP MPI-rank0   291495. kBytes
=======================================================================

   base      :      30000. kBytes
   nonlr-proj:      49460. kBytes
   fftplans  :      27976. kBytes
   grid      :      34041. kBytes
   one-center:       1026. kBytes
   wavefun   :     148992. kBytes
 
  
  
 General timing and accounting informations for this job:
 ========================================================
  
                  Total CPU time used (sec):      887.585
                            User time (sec):      556.036
                          System time (sec):      331.549
                         Elapsed time (sec):      917.508
  
                   Maximum memory used (kb):      622280.
                   Average memory used (kb):           0.
  
                          Minor page faults:        87604
                          Major page faults:           26
                 Voluntary context switches:        18582
