 vasp.5.4.4.18Apr17-6-g9f103f2a35 (build Jul 16 2019 12:12:28) complex          
  
 executed on             LinuxIFC date 2020.01.06  15:18:33
 running on   96 total cores
 distrk:  each k-point on   96 cores,    1 groups
 distr:  one band on NCORES_PER_BAND=   8 cores,   12 groups


--------------------------------------------------------------------------------------------------------


 INCAR:
 POTCAR:    PAW_PBE Li_sv 10Sep2004               
 POTCAR:    PAW_PBE Ti_pv 07Sep2000               
 POTCAR:    PAW_PBE O 08Apr2002                   
 POTCAR:    PAW_PBE F 08Apr2002                   
 POTCAR:    PAW_PBE Li_sv 10Sep2004               
   VRHFIN =Li: 1s2s2p                                                           
   LEXCH  = PE                                                                  
   EATOM  =   202.7858 eV,   14.9043 Ry                                         
                                                                                
   TITEL  = PAW_PBE Li_sv 10Sep2004                                             
   LULTRA =        F    use ultrasoft PP ?                                      
   IUNSCR =        0    unscreen: 0-lin 1-nonlin 2-no                           
   RPACOR =    0.000    partial core radius                                     
   POMASS =    7.010; ZVAL   =    3.000    mass and valenz                      
   RCORE  =    1.700    outmost cutoff radius                                   
   RWIGS  =    2.050; RWIGS  =    1.085    wigner-seitz radius (au A)           
   ENMAX  =  499.034; ENMIN  =  374.276 eV                                      
   ICORE  =        2    local potential                                         
   LCOR   =        T    correct aug charges                                     
   LPAW   =        T    paw PP                                                  
   EAUG   =  628.945                                                            
   RMAX   =    1.732    core radius for proj-oper                               
   RAUG   =    1.300    factor for augmentation sphere                          
   RDEP   =    1.728    radius for radial grids                                 
   RDEPT  =    1.329    core radius for aug-charge                              
                                                                                
   Atomic configuration                                                         
    4 entries                                                                   
     n  l   j            E        occ.                                          
     1  0  0.50       -51.8549   2.0000                                         
     2  0  0.50        -2.8742   1.0000                                         
     2  1  0.50        -1.3606   0.0000                                         
     3  2  1.50        -1.3606   0.0000                                         
   Description                                                                  
     l       E           TYP  RCUT    TYP  RCUT                                 
     0    -51.8548813     23  1.400                                             
     0     -2.8742052     23  1.700                                             
     1     -1.3605826     23  1.400                                             
     2     -1.3605826     23  1.400                                             
  local pseudopotential read in
  atomic valenz-charges read in
  non local Contribution for L=           0  read in
    real space projection operators read in
  non local Contribution for L=           0  read in
    real space projection operators read in
  non local Contribution for L=           1  read in
    real space projection operators read in
    PAW grid and wavefunctions read in
 
   number of l-projection  operators is LMAX  =           3
   number of lm-projection operators is LMMAX =           5
 
 POTCAR:    PAW_PBE Ti_pv 07Sep2000               
   VRHFIN =Ti: d3 s1                                                            
   LEXCH  = PE                                                                  
   EATOM  =  1042.5995 eV,   76.6289 Ry                                         
                                                                                
   TITEL  = PAW_PBE Ti_pv 07Sep2000                                             
   LULTRA =        F    use ultrasoft PP ?                                      
   IUNSCR =        1    unscreen: 0-lin 1-nonlin 2-no                           
   RPACOR =    2.200    partial core radius                                     
   POMASS =   47.880; ZVAL   =   10.000    mass and valenz                      
   RCORE  =    2.500    outmost cutoff radius                                   
   RWIGS  =    2.500; RWIGS  =    1.323    wigner-seitz radius (au A)           
   ENMAX  =  222.335; ENMIN  =  166.751 eV                                      
   RCLOC  =    1.701    cutoff for local pot                                    
   LCOR   =        T    correct aug charges                                     
   LPAW   =        T    paw PP                                                  
   EAUG   =  482.848                                                            
   DEXC   =    0.000                                                            
   RMAX   =    2.564    core radius for proj-oper                               
   RAUG   =    1.300    factor for augmentation sphere                          
   RDEP   =    2.538    radius for radial grids                                 
   RDEPT  =    1.952    core radius for aug-charge                              
                                                                                
   Atomic configuration                                                         
    8 entries                                                                   
     n  l   j            E        occ.                                          
     1  0  0.50     -4865.3608   2.0000                                         
     2  0  0.50      -533.1368   2.0000                                         
     2  1  1.50      -440.5031   6.0000                                         
     3  0  0.50       -59.3186   2.0000                                         
     3  1  1.50       -35.7012   6.0000                                         
     3  2  2.50        -1.9157   3.0000                                         
     4  0  0.50        -3.7291   1.0000                                         
     4  3  2.50        -1.3606   0.0000                                         
   Description                                                                  
     l       E           TYP  RCUT    TYP  RCUT                                 
     1    -35.7012140     23  2.300                                             
     1     -1.3605826     23  2.300                                             
     2     -1.9156996     23  2.500                                             
     2     -0.4063033     23  2.500                                             
     0     -3.7290856     23  2.500                                             
     0     20.4087390     23  2.500                                             
  local pseudopotential read in
  partial core-charges read in
  partial kinetic energy density read in
  atomic valenz-charges read in
  non local Contribution for L=           1  read in
    real space projection operators read in
  non local Contribution for L=           1  read in
    real space projection operators read in
  non local Contribution for L=           2  read in
    real space projection operators read in
  non local Contribution for L=           2  read in
    real space projection operators read in
  non local Contribution for L=           0  read in
    real space projection operators read in
  non local Contribution for L=           0  read in
    real space projection operators read in
    PAW grid and wavefunctions read in
 
   number of l-projection  operators is LMAX  =           6
   number of lm-projection operators is LMMAX =          18
 
 POTCAR:    PAW_PBE O 08Apr2002                   
   VRHFIN =O: s2p4                                                              
   LEXCH  = PE                                                                  
   EATOM  =   432.3788 eV,   31.7789 Ry                                         
                                                                                
   TITEL  = PAW_PBE O 08Apr2002                                                 
   LULTRA =        F    use ultrasoft PP ?                                      
   IUNSCR =        1    unscreen: 0-lin 1-nonlin 2-no                           
   RPACOR =    1.200    partial core radius                                     
   POMASS =   16.000; ZVAL   =    6.000    mass and valenz                      
   RCORE  =    1.520    outmost cutoff radius                                   
   RWIGS  =    1.550; RWIGS  =    0.820    wigner-seitz radius (au A)           
   ENMAX  =  400.000; ENMIN  =  300.000 eV                                      
   ICORE  =        2    local potential                                         
   LCOR   =        T    correct aug charges                                     
   LPAW   =        T    paw PP                                                  
   EAUG   =  605.392                                                            
   DEXC   =    0.000                                                            
   RMAX   =    1.553    core radius for proj-oper                               
   RAUG   =    1.300    factor for augmentation sphere                          
   RDEP   =    1.550    radius for radial grids                                 
   RDEPT  =    1.329    core radius for aug-charge                              
                                                                                
   Atomic configuration                                                         
    4 entries                                                                   
     n  l   j            E        occ.                                          
     1  0  0.50      -514.6923   2.0000                                         
     2  0  0.50       -23.9615   2.0000                                         
     2  1  0.50        -9.0305   4.0000                                         
     3  2  1.50        -9.5241   0.0000                                         
   Description                                                                  
     l       E           TYP  RCUT    TYP  RCUT                                 
     0    -23.9615318     23  1.200                                             
     0     -9.5240782     23  1.200                                             
     1     -9.0304911     23  1.520                                             
     1      8.1634956     23  1.520                                             
     2     -9.5240782      7  1.500                                             
  local pseudopotential read in
  partial core-charges read in
  partial kinetic energy density read in
  kinetic energy density of atom read in
  atomic valenz-charges read in
  non local Contribution for L=           0  read in
    real space projection operators read in
  non local Contribution for L=           0  read in
    real space projection operators read in
  non local Contribution for L=           1  read in
    real space projection operators read in
  non local Contribution for L=           1  read in
    real space projection operators read in
    PAW grid and wavefunctions read in
 
   number of l-projection  operators is LMAX  =           4
   number of lm-projection operators is LMMAX =           8
 
 POTCAR:    PAW_PBE F 08Apr2002                   
   VRHFIN =F: s2p5                                                              
   LEXCH  = PE                                                                  
   EATOM  =   659.6475 eV,   48.4827 Ry                                         
                                                                                
   TITEL  = PAW_PBE F 08Apr2002                                                 
   LULTRA =        F    use ultrasoft PP ?                                      
   IUNSCR =        1    unscreen: 0-lin 1-nonlin 2-no                           
   RPACOR =    1.200    partial core radius                                     
   POMASS =   18.998; ZVAL   =    7.000    mass and valenz                      
   RCORE  =    1.520    outmost cutoff radius                                   
   RWIGS  =    1.500; RWIGS  =    0.794    wigner-seitz radius (au A)           
   ENMAX  =  400.000; ENMIN  =  300.000 eV                                      
   ICORE  =        2    local potential                                         
   LCOR   =        T    correct aug charges                                     
   LPAW   =        T    paw PP                                                  
   EAUG   =  613.614                                                            
   RMAX   =    1.555    core radius for proj-oper                               
   RAUG   =    1.300    factor for augmentation sphere                          
   RDEP   =    1.539    radius for radial grids                                 
   RDEPT  =    1.299    core radius for aug-charge                              
                                                                                
   Atomic configuration                                                         
    4 entries                                                                   
     n  l   j            E        occ.                                          
     1  0  0.50      -663.3661   2.0000                                         
     2  0  0.50       -29.8995   2.0000                                         
     2  1  0.50       -11.1114   5.0000                                         
     3  2  1.50       -10.8847   0.0000                                         
   Description                                                                  
     l       E           TYP  RCUT    TYP  RCUT                                 
     0    -29.8995018     23  1.200                                             
     0     -9.5240782     23  1.200                                             
     1    -11.1113914     23  1.520                                             
     1      1.3605826     23  1.520                                             
     2    -10.8846608      7  1.500                                             
  local pseudopotential read in
  partial core-charges read in
  partial kinetic energy density read in
  atomic valenz-charges read in
  non local Contribution for L=           0  read in
    real space projection operators read in
  non local Contribution for L=           0  read in
    real space projection operators read in
  non local Contribution for L=           1  read in
    real space projection operators read in
  non local Contribution for L=           1  read in
    real space projection operators read in
    PAW grid and wavefunctions read in
 
   number of l-projection  operators is LMAX  =           4
   number of lm-projection operators is LMMAX =           8
 
 Optimization of the real space projectors (new method)

 maximal supplied QI-value         = 22.11
 optimisation between [QCUT,QGAM] = [ 11.28, 22.77] = [ 35.61,145.23] Ry 
 Optimized for a Real-space Cutoff    1.31 Angstroem

   l    n(q)    QCUT    max X(q) W(low)/X(q) W(high)/X(q)  e(spline) 
   0      9    11.276    10.506    0.19E-04    0.17E-04    0.32E-07
   0      9    11.276     8.367    0.38E-04    0.40E-04    0.65E-07
   1      8    11.276     8.983    0.55E-04    0.98E-04    0.20E-06
 Optimization of the real space projectors (new method)

 maximal supplied QI-value         = 15.12
 optimisation between [QCUT,QGAM] = [ 11.34, 22.83] = [ 36.00,145.93] Ry 
 Optimized for a Real-space Cutoff    1.56 Angstroem

   l    n(q)    QCUT    max X(q) W(low)/X(q) W(high)/X(q)  e(spline) 
   1     10    11.338     4.216    0.27E-04    0.12E-04    0.66E-07
   1     10    11.338     5.422    0.81E-04    0.24E-04    0.19E-06
   2     10    11.338    72.084    0.64E-04    0.21E-03    0.51E-06
   2     10    11.338    65.965    0.63E-04    0.21E-03    0.50E-06
   0     11    11.338    41.531    0.33E-04    0.54E-04    0.13E-06
   0     11    11.338    16.290    0.26E-04    0.41E-04    0.11E-06
 Optimization of the real space projectors (new method)

 maximal supplied QI-value         = 24.76
 optimisation between [QCUT,QGAM] = [ 11.39, 22.77] = [ 36.31,145.25] Ry 
 Optimized for a Real-space Cutoff    1.20 Angstroem

   l    n(q)    QCUT    max X(q) W(low)/X(q) W(high)/X(q)  e(spline) 
   0      8    11.387    20.381    0.89E-04    0.31E-03    0.27E-06
   0      8    11.387    15.268    0.93E-04    0.32E-03    0.29E-06
   1      8    11.387     5.964    0.53E-04    0.28E-03    0.29E-06
   1      8    11.387     5.382    0.37E-04    0.22E-03    0.26E-06
 Optimization of the real space projectors (new method)

 maximal supplied QI-value         = 24.76
 optimisation between [QCUT,QGAM] = [ 11.39, 22.77] = [ 36.31,145.25] Ry 
 Optimized for a Real-space Cutoff    1.20 Angstroem

   l    n(q)    QCUT    max X(q) W(low)/X(q) W(high)/X(q)  e(spline) 
   0      8    11.387    14.049    0.69E-04    0.23E-03    0.18E-06
   0      8    11.387     8.945    0.88E-04    0.30E-03    0.26E-06
   1      8    11.387     7.086    0.62E-04    0.27E-03    0.27E-06
   1      8    11.387     6.747    0.46E-04    0.23E-03    0.25E-06

 ----------------------------------------------------------------------------- 
|                                                                             |
|  ADVICE TO THIS USER RUNNING 'VASP/VAMP'   (HEAR YOUR MASTER'S VOICE ...):  |
|                                                                             |
|      You enforced a specific xc-type in the INCAR file,                     |
|      a different type was found on the POTCAR file                          |
|          I HOPE YOU KNOW, WHAT YOU ARE  DOING                               |
|                                                                             |
 ----------------------------------------------------------------------------- 

  PAW_PBE Li_sv 10Sep2004               :
 energy of atom  1       EATOM= -202.7858
 kinetic energy error for atom=    0.0143 (will be added to EATOM!!)
  PAW_PBE Ti_pv 07Sep2000               :
 energy of atom  2       EATOM=-1042.5995
 kinetic energy error for atom=    0.0024 (will be added to EATOM!!)
  PAW_PBE O 08Apr2002                   :
 energy of atom  3       EATOM= -432.3788
 kinetic energy error for atom=    0.0224 (will be added to EATOM!!)
  PAW_PBE F 08Apr2002                   :
 energy of atom  4       EATOM= -659.6475
 kinetic energy error for atom=    0.0354 (will be added to EATOM!!)
 
 
 POSCAR: config 56                               
  positions in direct lattice
  velocities in cartesian coordinates
 exchange correlation table for  LEXCH =       14
   RHO(1)=    0.500       N(1)  =     2000
   RHO(2)=  100.500       N(2)  =     4000

 VTST: version 3.2, (02/03/18)

 CHAIN: initializing optimizer
 
 OPT: Using VASP QUASI-newton optimizer
 CHAIN: Read ICHAIN            0
 
 POSCAR: config 56                               
  positions in direct lattice
  velocities in cartesian coordinates
 


--------------------------------------------------------------------------------------------------------


 ion  position               nearest neighbor table
   1  0.879  0.377  0.947- 194 1.87 110 1.94 117 1.97 247 2.14  18 2.81   4 2.84  54 2.88
   2  0.996  0.993  0.993- 118 1.86  68 1.89 103 1.90 171 2.03 212 2.03 130 2.06
   3  0.998  0.992  0.493- 119 1.82  67 1.83 172 1.96 193 1.97 131 2.01 213 2.10
   4  0.010  0.497  0.996-  89 1.82 117 1.82 138 1.95 132 1.98 214 2.02 194 2.14   1 2.84
   5  0.994  0.502  0.507-  66 1.83 104 1.84 215 1.94 223 2.01 173 2.02 137 2.02
   6  0.495  0.993  1.000- 101 1.83 121 1.85 140 1.96 133 1.98 216 2.02 174 2.03
   7  0.502  0.009  0.498- 112 1.78 191 1.92 134 1.92 139 1.93 175 1.94 225 2.04
   8  0.503  0.495  0.996- 120 1.88  70 1.88  90 1.89 192 2.00 135 2.04 217 2.07
   9  0.492  0.499  0.495- 102 1.81  69 1.86 224 1.99 218 2.00 136 2.01 176 2.07
  10  0.007  0.004  0.256-  91 1.84  67 1.87 219 1.95 227 1.98 130 2.00 197 2.06
  11  0.002  0.009  0.755-  68 1.80 113 1.84 177 1.95 198 1.99 228 2.05 131 2.06
  12  0.994  0.493  0.252- 107 1.83 122 1.85 137 1.93 132 1.97 220 2.01 178 2.02
  13  0.993  0.499  0.741-  66 1.82 108 1.83 226 1.94 221 1.97 138 2.02 179 2.05
  14  0.505  0.009  0.251- 114 1.82  92 1.84 133 1.93 139 1.99 195 2.00 231 2.07
  15  0.493  0.005  0.753- 105 1.81 115 1.84 140 1.94 134 2.01 232 2.01 180 2.04
  16  0.492  0.496  0.257-  69 1.83 106 1.84 229 1.96 222 2.01 135 2.02 181 2.05
  17  0.500  0.504  0.759-  70 1.81 116 1.87 182 1.95 196 1.97 230 2.03 136 2.08
  18  0.001  0.253  0.000- 117 1.96 212 1.99 141 2.02 183 2.03 146 2.04 110 2.04   1 2.81
  19  0.999  0.247  0.491-  74 1.77 213 1.92 184 1.94 202 1.94 223 1.96 142 2.02
  20  0.999  0.757  0.005- 118 1.81  71 1.85 203 1.96 185 1.99 148 2.04 214 2.05
  21  0.996  0.758  0.505- 119 1.83  72 1.84 204 1.95 186 1.98 147 2.02 215 2.04
  22  0.496  0.259  0.002- 120 1.81 109 1.83 150 1.97 143 1.99 187 2.01 216 2.08
  23  0.509  0.246  0.498-  93 1.80 112 1.91 144 1.93 149 1.94 224 1.98 199 2.01
  24  0.508  0.756  1.000-  94 1.83 121 1.84 152 1.94 145 1.99 217 2.02 200 2.03
  25  0.507  0.753  0.508-  73 1.79  95 1.84 225 1.97 218 1.98 201 2.02 151 2.07
  26  0.000  0.258  0.256- 122 1.80  74 1.90 141 1.93 209 1.96 188 1.97 219 2.04
  27  0.007  0.242  0.745- 113 1.81  96 1.84 146 1.92 142 1.97 210 2.06 226 2.08
  28  0.006  0.749  0.243-  71 1.82  97 1.84 220 1.95 227 1.98 147 2.05 211 2.06
  29  0.993  0.751  0.742- 111 1.83  72 1.84 228 1.93 221 1.98 189 2.02 148 2.03
  30  0.508  0.241  0.252-  98 1.81 114 1.83 143 1.94 149 1.97 229 2.03 205 2.03
  31  0.507  0.243  0.750-  99 1.84 115 1.84 150 1.93 144 1.98 206 2.00 230 2.02
  32  0.506  0.751  0.252- 100 1.79 151 1.93 231 1.94 145 1.94 222 1.95 207 2.00
  33  0.502  0.742  0.744- 116 1.81  73 1.84 190 1.93 208 1.97 152 2.03 232 2.06
  34  0.257  0.998  0.005-  75 1.85 101 1.86 246 1.94 233 1.96 171 2.02 157 2.04
  35  0.252  0.994  0.506- 128 1.83  76 1.84 172 1.96 191 2.00 156 2.02 234 2.03
  36  0.247  0.509  0.998- 123 1.82  89 1.84 159 1.94 153 1.98 192 2.00 245 2.04
  37  0.255  0.494  0.506-  77 1.86 127 1.88 102 1.88 173 2.05 158 2.05 235 2.06
  38  0.757  0.999  0.994- 103 1.79  81 1.87 249 1.96 236 1.96 154 2.05 174 2.06
  39  0.749  0.008  0.495-  80 1.83 124 1.84 193 1.94 155 1.99 175 2.00 250 2.05
  40  0.738  0.504  0.006-  90 1.78  78 1.86 237 1.95 247 2.00 161 2.04 194 2.09
  41  0.755  0.498  0.505-  79 1.85 104 1.85 248 1.97 238 1.99 176 2.02 160 2.03
  42  0.245  0.003  0.243-  75 1.84  91 1.85 239 1.94 252 1.97 156 2.04 195 2.06
  43  0.258  0.998  0.744- 105 1.84  76 1.84 253 1.93 240 1.97 177 2.02 157 2.03
  44  0.255  0.491  0.252- 129 1.83 106 1.84 158 1.93 153 1.97 241 2.05 178 2.05
  45  0.247  0.506  0.741-  77 1.79 125 1.84 179 1.95 196 1.98 251 2.02 159 2.07
  46  0.744  0.002  0.255-  92 1.85  80 1.86 256 1.95 242 1.96 154 2.00 197 2.00
  47  0.748  0.007  0.755-  81 1.82 126 1.84 180 1.95 198 1.96 257 2.04 155 2.07
  48  0.755  0.497  0.243-  78 1.83 107 1.85 243 1.96 254 1.96 181 2.02 160 2.05
  49  0.757  0.498  0.742-  79 1.83 108 1.83 255 1.95 244 1.98 182 2.03 161 2.06
  50  0.259  0.252  0.006- 109 1.84  82 1.86 245 1.94 183 1.97 233 1.98 168 2.03
  51  0.254  0.257  0.505- 127 1.81  83 1.85 199 1.97 184 2.02 167 2.03 234 2.06
  52  0.253  0.743  0.994- 123 1.82  86 1.84 200 1.95 185 1.97 162 2.03 246 2.04
  53  0.252  0.755  0.493-  85 1.83 128 1.87 201 1.96 186 1.99 235 2.01 163 2.04
  54  0.755  0.251  0.007- 110 1.77  84 1.88 236 1.94 247 2.01 187 2.02 170 2.06   1 2.88
  55  0.742  0.243  0.498- 124 1.83  93 1.85 169 1.93 164 1.96 248 2.04 202 2.04
  56  0.741  0.749  0.994-  94 1.82  88 1.83 249 1.95 237 1.96 203 2.03 165 2.04
  57  0.741  0.753  0.494-  95 1.82  87 1.86 250 1.96 238 1.98 166 2.01 204 2.04
  58  0.251  0.258  0.244-  82 1.82 129 1.83 205 1.97 188 2.00 167 2.03 239 2.04
  59  0.244  0.252  0.744-  96 1.84  83 1.84 251 1.94 240 1.98 168 2.02 206 2.05
  60  0.244  0.747  0.256-  97 1.83  85 1.84 241 1.94 252 1.98 162 2.03 207 2.06
  61  0.248  0.742  0.757- 125 1.81  86 1.84 189 1.94 208 1.98 163 2.04 253 2.04
  62  0.742  0.251  0.242-  84 1.79  98 1.84 254 1.95 242 1.96 209 2.04 169 2.08
  63  0.743  0.242  0.749- 126 1.82  99 1.84 170 1.94 164 2.00 210 2.01 255 2.07
  64  0.745  0.749  0.257-  87 1.82 100 1.90 243 1.95 256 1.95 211 1.98 165 2.03
  65  0.758  0.750  0.756- 111 1.82  88 1.84 257 1.93 244 1.98 190 2.03 166 2.05
  66  0.009  0.492  0.624-  13 1.82   5 1.83
  67  0.998  0.013  0.376-   3 1.83  10 1.87
  68  0.002  0.010  0.872-  11 1.80   2 1.89
  69  0.498  0.488  0.375-  16 1.83   9 1.86
  70  0.491  0.492  0.875-  17 1.81   8 1.88
  71  0.000  0.752  0.125-  28 1.82  20 1.85
  72  0.003  0.755  0.623-  21 1.84  29 1.84
  73  0.505  0.747  0.624-  25 1.79  33 1.84
  74  0.994  0.237  0.377-  19 1.77  26 1.90
  75  0.258  0.002  0.125-  42 1.84  34 1.85
  76  0.259  0.004  0.625-  43 1.84  35 1.84
  77  0.237  0.494  0.625-  45 1.79  37 1.86
  78  0.748  0.486  0.125-  48 1.83  40 1.86
  79  0.745  0.487  0.624-  49 1.83  41 1.85
  80  0.748  0.006  0.376-  39 1.83  46 1.86
  81  0.743  0.005  0.873-  47 1.82  38 1.87
  82  0.246  0.251  0.126-  58 1.82  50 1.86
  83  0.254  0.251  0.625-  59 1.84  51 1.85
  84  0.740  0.265  0.127-  62 1.79  54 1.88
  85  0.256  0.744  0.375-  53 1.83  60 1.84
  86  0.253  0.751  0.875-  52 1.84  61 1.84
  87  0.753  0.745  0.374-  64 1.82  57 1.86
  88  0.750  0.745  0.875-  56 1.83  65 1.84
  89  0.127  0.511  0.992-   4 1.82  36 1.84
  90  0.624  0.516  0.997-  40 1.78   8 1.89
  91  0.126  0.008  0.249-  10 1.84  42 1.85
  92  0.625  0.007  0.247-  14 1.84  46 1.85
  93  0.624  0.265  0.494-  23 1.80  55 1.85
  94  0.624  0.733  0.001-  56 1.82  24 1.83
  95  0.624  0.769  0.493-  57 1.82  25 1.84
  96  0.125  0.253  0.748-  27 1.84  59 1.84
  97  0.125  0.747  0.254-  60 1.83  28 1.84
  98  0.625  0.239  0.263-  30 1.81  62 1.84
  99  0.625  0.255  0.745-  63 1.84  31 1.84
 100  0.622  0.749  0.253-  32 1.79  64 1.90
 101  0.377  0.992  0.990-   6 1.83  34 1.86
 102  0.375  0.512  0.506-   9 1.81  37 1.88
 103  0.873  0.991  0.997-  38 1.79   2 1.90
 104  0.875  0.509  0.501-   5 1.84  41 1.85
 105  0.377  0.998  0.761-  15 1.81  43 1.84
 106  0.374  0.491  0.247-  44 1.84  16 1.84
 107  0.875  0.491  0.251-  12 1.83  48 1.85
 108  0.875  0.508  0.744-  13 1.83  49 1.83
 109  0.378  0.254  0.005-  22 1.83  50 1.84
 110  0.869  0.264  0.000-  54 1.77   1 1.94  18 2.04
 111  0.875  0.742  0.746-  65 1.82  29 1.83
 112  0.518  0.123  0.488-   7 1.78  23 1.91
 113  0.998  0.126  0.732-  27 1.81  11 1.84
 114  0.489  0.125  0.269-  14 1.82  30 1.83
 115  0.503  0.124  0.755-  15 1.84  31 1.84
 116  0.503  0.625  0.755-  33 1.81  17 1.87
 117  0.000  0.379  0.987-   4 1.82  18 1.96   1 1.97
 118  0.011  0.874  0.994-  20 1.81   2 1.86
 119  0.985  0.875  0.490-   3 1.82  21 1.83
 120  0.510  0.375  0.013-  22 1.81   8 1.88
 121  0.512  0.875  0.010-  24 1.84   6 1.85
 122  0.012  0.374  0.258-  26 1.80  12 1.85
 123  0.265  0.625  0.004-  36 1.82  52 1.82
 124  0.733  0.125  0.510-  55 1.83  39 1.84
 125  0.245  0.625  0.749-  61 1.81  45 1.84
 126  0.750  0.125  0.737-  63 1.82  47 1.84
 127  0.260  0.373  0.492-  51 1.81  37 1.88
 128  0.262  0.876  0.499-  35 1.83  53 1.87
 129  0.237  0.374  0.259-  58 1.83  44 1.83
 130  0.998  0.994  0.127-  10 2.00   2 2.06
 131  0.001  0.989  0.623-   3 2.01  11 2.06
 132  0.001  0.500  0.124-  12 1.97   4 1.98
 133  0.490  0.014  0.126-  14 1.93   6 1.98
 134  0.493  0.004  0.623-   7 1.92  15 2.01
 135  0.503  0.513  0.128-  16 2.02   8 2.04
 136  0.510  0.505  0.624-   9 2.01  17 2.08
 137  0.001  0.506  0.376-  12 1.93   5 2.02
 138  0.992  0.511  0.872-   4 1.95  13 2.02
 139  0.507  0.982  0.376-   7 1.93  14 1.99
 140  0.520  0.992  0.875-  15 1.94   6 1.96
 141  0.010  0.255  0.131-  26 1.93  18 2.02
 142  0.999  0.268  0.621-  27 1.97  19 2.02
 143  0.509  0.232  0.127-  30 1.94  22 1.99
 144  0.496  0.240  0.622-  23 1.93  31 1.98
 145  0.497  0.739  0.127-  32 1.94  24 1.99
 146  0.993  0.238  0.869-  27 1.92  18 2.04
 147  0.992  0.743  0.375-  21 2.02  28 2.05
 148  0.999  0.743  0.873-  29 2.03  20 2.04
 149  0.491  0.269  0.376-  23 1.94  30 1.97
 150  0.501  0.261  0.874-  31 1.93  22 1.97
 151  0.490  0.761  0.375-  32 1.93  25 2.07
 152  0.497  0.758  0.874-  24 1.94  33 2.03
 153  0.242  0.492  0.124-  44 1.97  36 1.98
 154  0.752  0.996  0.126-  46 2.00  38 2.05
 155  0.750  0.990  0.623-  39 1.99  47 2.07
 156  0.250  0.002  0.375-  35 2.02  42 2.04
 157  0.240  0.994  0.874-  43 2.03  34 2.04
 158  0.249  0.514  0.375-  44 1.93  37 2.05
 159  0.264  0.500  0.874-  36 1.94  45 2.07
 160  0.747  0.512  0.374-  41 2.03  48 2.05
 161  0.753  0.512  0.874-  40 2.04  49 2.06
 162  0.250  0.756  0.125-  60 2.03  52 2.03
 163  0.247  0.752  0.625-  53 2.04  61 2.04
 164  0.752  0.268  0.622-  55 1.96  63 2.00
 165  0.750  0.754  0.126-  64 2.03  56 2.04
 166  0.745  0.754  0.624-  57 2.01  65 2.05
 167  0.255  0.242  0.374-  58 2.03  51 2.03
 168  0.256  0.251  0.874-  59 2.02  50 2.03
 169  0.762  0.237  0.375-  55 1.93  62 2.08
 170  0.749  0.238  0.875-  63 1.94  54 2.06
 171  0.127  0.008  0.004-  34 2.02   2 2.03
 172  0.125  0.992  0.501-  35 1.96   3 1.96
 173  0.123  0.491  0.490-   5 2.02  37 2.05
 174  0.625  0.010  0.011-   6 2.03  38 2.06
 175  0.624  0.977  0.505-   7 1.94  39 2.00
 176  0.625  0.486  0.496-  41 2.02   9 2.07
 177  0.127  1.000  0.744-  11 1.95  43 2.02
 178  0.123  0.512  0.249-  12 2.02  44 2.05
 179  0.123  0.491  0.765-  45 1.95  13 2.05
 180  0.624  0.994  0.737-  47 1.95  15 2.04
 181  0.625  0.504  0.251-  48 2.02  16 2.05
 182  0.626  0.490  0.758-  17 1.95  49 2.03
 183  0.132  0.245  0.992-  50 1.97  18 2.03
 184  0.124  0.256  0.498-  19 1.94  51 2.02
 185  0.125  0.735  0.999-  52 1.97  20 1.99
 186  0.124  0.761  0.493-  21 1.98  53 1.99
 187  0.625  0.243  0.994-  22 2.01  54 2.02
 188  0.125  0.232  0.259-  26 1.97  58 2.00
 189  0.123  0.756  0.753-  61 1.94  29 2.02
 190  0.626  0.756  0.753-  33 1.93  65 2.03
 191  0.378  0.017  0.490-   7 1.92  35 2.00
 192  0.374  0.489  0.011-  36 2.00   8 2.00
 193  0.874  0.019  0.506-  39 1.94   3 1.97
 194  0.872  0.488  0.995-   1 1.87  40 2.09   4 2.14
 195  0.377  0.991  0.259-  14 2.00  42 2.06
 196  0.375  0.501  0.737-  17 1.97  45 1.98
 197  0.874  0.995  0.249-  46 2.00  10 2.06
 198  0.874  0.995  0.746-  47 1.96  11 1.99
 199  0.379  0.233  0.497-  51 1.97  23 2.01
 200  0.377  0.765  0.004-  52 1.95  24 2.03
 201  0.377  0.736  0.504-  53 1.96  25 2.02
 202  0.874  0.238  0.507-  19 1.94  55 2.04
 203  0.872  0.764  0.000-  20 1.96  56 2.03
 204  0.872  0.734  0.506-  21 1.95  57 2.04
 205  0.378  0.263  0.245-  58 1.97  30 2.03
 206  0.377  0.249  0.751-  31 2.00  59 2.05
 207  0.377  0.753  0.245-  32 2.00  60 2.06
 208  0.375  0.753  0.746-  33 1.97  61 1.98
 209  0.874  0.262  0.246-  26 1.96  62 2.04
 210  0.873  0.253  0.746-  63 2.01  27 2.06
 211  0.873  0.752  0.247-  64 1.98  28 2.06
 212  0.995  0.124  0.010-  18 1.99   2 2.03
 213  0.009  0.125  0.517-  19 1.92   3 2.10
 214  0.985  0.625  0.001-   4 2.02  20 2.05
 215  0.011  0.626  0.501-   5 1.94  21 2.04
 216  0.499  0.124  0.990-   6 2.02  22 2.08
 217  0.482  0.628  0.994-  24 2.02   8 2.07
 218  0.515  0.627  0.490-  25 1.98   9 2.00
 219  0.987  0.127  0.239-  10 1.95  26 2.04
 220  0.993  0.623  0.249-  28 1.95  12 2.01
 221  0.013  0.625  0.745-  13 1.97  29 1.98
 222  0.495  0.626  0.263-  32 1.95  16 2.01
 223  0.991  0.374  0.488-  19 1.96   5 2.01
 224  0.485  0.371  0.513-  23 1.98   9 1.99
 225  0.481  0.879  0.505-  25 1.97   7 2.04
 226  0.993  0.375  0.761-  13 1.94  27 2.08
 227  1.000  0.876  0.259-  10 1.98  28 1.98
 228  0.998  0.876  0.755-  29 1.93  11 2.05
 229  0.510  0.371  0.235-  16 1.96  30 2.03
 230  0.495  0.374  0.739-  31 2.02  17 2.03
 231  0.501  0.876  0.238-  32 1.94  14 2.07
 232  0.501  0.875  0.747-  15 2.01  33 2.06
 233  0.255  0.124  0.994-  34 1.96  50 1.98
 234  0.240  0.124  0.498-  35 2.03  51 2.06
 235  0.238  0.627  0.506-  53 2.01  37 2.06
 236  0.755  0.125  0.012-  54 1.94  38 1.96
 237  0.769  0.626  0.011-  40 1.95  56 1.96
 238  0.734  0.625  0.507-  57 1.98  41 1.99
 239  0.266  0.126  0.252-  42 1.94  58 2.04
 240  0.251  0.125  0.757-  43 1.97  59 1.98
 241  0.256  0.623  0.239-  60 1.94  44 2.05
 242  0.764  0.127  0.240-  62 1.96  46 1.96
 243  0.752  0.624  0.240-  64 1.95  48 1.96
 244  0.737  0.624  0.741-  65 1.98  49 1.98
 245  0.245  0.377  0.995-  50 1.94  36 2.04
 246  0.237  0.874  0.003-  34 1.94  52 2.04
 247  0.743  0.377  0.978-  40 2.00  54 2.01   1 2.14
 248  0.763  0.372  0.484-  41 1.97  55 2.04
 249  0.734  0.875  0.001-  56 1.95  38 1.96
 250  0.769  0.877  0.497-  57 1.96  39 2.05
 251  0.256  0.376  0.757-  59 1.94  45 2.02
 252  0.249  0.875  0.253-  42 1.97  60 1.98
 253  0.248  0.874  0.746-  43 1.93  61 2.04
 254  0.740  0.374  0.271-  62 1.95  48 1.96
 255  0.758  0.374  0.766-  49 1.95  63 2.07
 256  0.748  0.875  0.251-  64 1.95  46 1.95
 257  0.752  0.875  0.751-  65 1.93  47 2.04
 

IMPORTANT INFORMATION: All symmetrisations will be switched off!
NOSYMM: (Re-)initialisation of all symmetry stuff for point group C_1.

 
 
 KPOINTS: Title                                   

Automatic generation of k-mesh.
Space group operators:
 irot       det(A)        alpha          n_x          n_y          n_z        tau_x        tau_y        tau_z
    1     1.000000     0.000001     1.000000     0.000000     0.000000     0.000000     0.000000     0.000000
 
 Subroutine IBZKPT returns following result:
 ===========================================
 
 Found      4 irreducible k-points:
 
 Following reciprocal coordinates:
            Coordinates               Weight
  0.250000  0.250000  0.250000      2.000000
 -0.250000  0.250000  0.250000      2.000000
  0.250000 -0.250000  0.250000      2.000000
 -0.250000 -0.250000  0.250000      2.000000
 
 Following cartesian coordinates:
            Coordinates               Weight
  0.016206  0.016206  0.016206      2.000000
 -0.016206  0.016206  0.016206      2.000000
  0.016206 -0.016206  0.016206      2.000000
 -0.016206 -0.016206  0.016206      2.000000
 


--------------------------------------------------------------------------------------------------------




 Dimension of arrays:
   k-points           NKPTS =      4   k-points in BZ     NKDIM =      4   number of bands    NBANDS=   1164
   number of dos      NEDOS =   3001   number of ions     NIONS =    257
   non local maximal  LDIM  =      6   non local SUM 2l+1 LMDIM =     18
   total plane-waves  NPLWV = ******
   max r-space proj   IRMAX =   7595   max aug-charges    IRDMAX= 146383
   dimension x,y,z NGX =   120 NGY =  120 NGZ =  120
   dimension x,y,z NGXF=   240 NGYF=  240 NGZF=  240
   support grid    NGXF=   480 NGYF=  480 NGZF=  480
   ions per type =               1  64  64 128
   NGX,Y,Z   is equivalent  to a cutoff of  12.93, 12.93, 12.93 a.u.
   NGXF,Y,Z  is equivalent  to a cutoff of  25.86, 25.86, 25.86 a.u.

 SYSTEM =  LTO                                     
 POSCAR =  config 56                               

 Startparameter for this run:
   NWRITE =      2    write-flag & timer
   PREC   = accura    normal or accurate (medium, high low for compatibility)
   ISTART =      1    job   : 0-new  1-cont  2-samecut
   ICHARG =      0    charge: 1-file 2-atom 10-const
   ISPIN  =      2    spin polarized calculation?
   LNONCOLLINEAR =      F non collinear calculations
   LSORBIT =      F    spin-orbit coupling
   INIWAV =      1    electr: 0-lowe 1-rand  2-diag
   LASPH  =      T    aspherical Exc in radial PAW
   METAGGA=      F    non-selfconsistent MetaGGA calc.

 Electronic Relaxation 1
   ENCUT  =  500.0 eV  36.75 Ry    6.06 a.u.  28.13 28.13 28.13*2*pi/ulx,y,z
   ENINI  =  500.0     initial cutoff
   ENAUG  =  628.9 eV  augmentation charge cutoff
   NELM   =     60;   NELMIN=  2; NELMDL=  0     # of ELM steps 
   EDIFF  = 0.1E-05   stopping-criterion for ELM
   LREAL  =      T    real-space projection
   NLSPLINE    = F    spline interpolate recip. space projectors
   LCOMPAT=      F    compatible to vasp.4.4
   GGA_COMPAT  = T    GGA compatible to vasp.4.4-vasp.4.6
   LMAXPAW     = -100 max onsite density
   LMAXMIX     =    4 max onsite mixed and CHGCAR
   VOSKOWN=      0    Vosko Wilk Nusair interpolation
   ROPT   =   -0.00010  -0.00010  -0.00010  -0.00010
 Ionic relaxation
   EDIFFG = -.5E-01   stopping-criterion for IOM
   NSW    =    100    number of steps for IOM
   NBLOCK =      1;   KBLOCK =    100    inner block; outer block 
   IBRION =      1    ionic relax: 0-MD 1-quasi-New 2-CG
   NFREE  =      0    steps in history (QN), initial steepest desc. (CG)
   ISIF   =      2    stress and relaxation
   IWAVPR =     11    prediction:  0-non 1-charg 2-wave 3-comb
   ISYM   =      0    0-nonsym 1-usesym 2-fastsym
   LCORR  =      T    Harris-Foulkes like correction to forces

   POTIM  = 0.5000    time-step for ionic-motion
   TEIN   =    0.0    initial temperature
   TEBEG  =    0.0;   TEEND  =   0.0 temperature during run
   SMASS  =  -3.00    Nose mass-parameter (am)
   estimated Nose-frequenzy (Omega)   =  0.10E-29 period in steps =****** mass=  -0.544E-26a.u.
   SCALEE = 1.0000    scale energy and forces
   NPACO  =    256;   APACO  = 16.0  distance and # of slots for P.C.
   PSTRESS=    0.0 pullay stress

  Mass of Ions in am
   POMASS =   7.01 47.88 16.00 19.00
  Ionic Valenz
   ZVAL   =   3.00 10.00  6.00  7.00
  Atomic Wigner-Seitz radii
   RWIGS  =  -1.00 -1.00 -1.00 -1.00
  virtual crystal weights 
   VCA    =   1.00  1.00  1.00  1.00
   NELECT =    1923.0000    total number of electrons
   NUPDOWN=       1.0000    fix difference up-down

 DOS related values:
   EMIN   =  10.00;   EMAX   =-10.00  energy-range for DOS
   EFERMI =   0.00
   ISMEAR =     0;   SIGMA  =   0.01  broadening in eV -4-tet -1-fermi 0-gaus

 Electronic relaxation 2 (details)
   IALGO  =     38    algorithm
   LDIAG  =      T    sub-space diagonalisation (order eigenvalues)
   LSUBROT=      F    optimize rotation matrix (better conditioning)
   TURBO    =      0    0=normal 1=particle mesh
   IRESTART =      0    0=no restart 2=restart with 2 vectors
   NREBOOT  =      0    no. of reboots
   NMIN     =      0    reboot dimension
   EREF     =   0.00    reference energy to select bands
   IMIX   =      4    mixing-type and parameters
     AMIX     =   0.40;   BMIX     =  1.00
     AMIX_MAG =   1.60;   BMIX_MAG =  1.00
     AMIN     =   0.10
     WC   =   100.;   INIMIX=   1;  MIXPRE=   1;  MAXMIX= -45

 Intra band minimization:
   WEIMIN = 0.0010     energy-eigenvalue tresh-hold
   EBREAK =  0.21E-09  absolut break condition
   DEPER  =   0.30     relativ break condition  

   TIME   =   0.40     timestep for ELM

  volume/ion in A,a.u.               =      14.28        96.39
  Fermi-wavevector in a.u.,A,eV,Ry     =   1.319690  2.493853 23.695660  1.741582
  Thomas-Fermi vector in A             =   2.449570
 
 Write flags
   LWAVE        =      T    write WAVECAR
   LDOWNSAMPLE  =      F    k-point downsampling of WAVECAR
   LCHARG       =      T    write CHGCAR
   LVTOT        =      F    write LOCPOT, total local potential
   LVHAR        =      F    write LOCPOT, Hartree potential only
   LELF         =      F    write electronic localiz. function (ELF)
   LORBIT       =     11    0 simple, 1 ext, 2 COOP (PROOUT), +10 PAW based schemes


 Dipole corrections
   LMONO  =      F    monopole corrections only (constant potential shift)
   LDIPOL =      F    correct potential (dipole corrections)
   IDIPOL =      0    1-x, 2-y, 3-z, 4-all directions 
   EPSILON=  1.0000000 bulk dielectric constant

 LDA+U is selected, type is set to LDAUTYPE =  2
   angular momentum for each species LDAUL =    -1    2   -1   -1
   U (eV)           for each species LDAUU =   0.0  4.2  0.0  0.0
   J (eV)           for each species LDAUJ =   0.0  0.0  0.0  0.0
 Exchange correlation treatment:
   GGA     =    PS    GGA type
   LEXCH   =    14    internal setting for exchange type
   VOSKOWN=      0    Vosko Wilk Nusair interpolation
   LHFCALC =     F    Hartree Fock is set to
   LHFONE  =     F    Hartree Fock one center treatment
   AEXX    =    0.0000 exact exchange contribution

 Linear response parameters
   LEPSILON=     F    determine dielectric tensor
   LRPA    =     F    only Hartree local field effects (RPA)
   LNABLA  =     F    use nabla operator in PAW spheres
   LVEL    =     F    velocity operator in full k-point grid
   LINTERFAST=   F  fast interpolation
   KINTER  =     0    interpolate to denser k-point grid
   CSHIFT  =0.1000    complex shift for real part using Kramers Kronig
   OMEGAMAX=  -1.0    maximum frequency
   DEG_THRESHOLD= 0.2000000E-02 threshold for treating states as degnerate
   RTIME   =   -0.100 relaxation time in fs
  (WPLASMAI=    0.000 imaginary part of plasma frequency in eV, 0.658/RTIME)
   DFIELD  = 0.0000000 0.0000000 0.0000000 field for delta impulse in time
 
 Orbital magnetization related:
   ORBITALMAG=     F  switch on orbital magnetization
   LCHIMAG   =     F  perturbation theory with respect to B field
   DQ        =  0.001000  dq finite difference perturbation B field
   LLRAUG    =     F  two centre corrections for induced B field



--------------------------------------------------------------------------------------------------------


 quasi-Newton-method for relaxation of ions
 charge density and potential will be updated during run
 spin polarized calculation
 Variant of blocked Davidson
 Davidson routine will perform the subspace rotation
 perform sub-space diagonalisation
    after iterative eigenvector-optimisation
 modified Broyden-mixing scheme, WC =      100.0
 initial mixing is a Kerker type mixing with AMIX =  0.4000 and BMIX =      1.0000
 Hartree-type preconditioning will be used
 using additional bands          202
 real space projection scheme for non local part
 use partial core corrections
 calculate Harris-corrections to forces 
   (improved forces if not selfconsistent)
 use gradient corrections 
 use of overlap-Matrix (Vanderbilt PP)
 Gauss-broadening in eV      SIGMA  =   0.01


--------------------------------------------------------------------------------------------------------


  energy-cutoff  :      500.00
  volume of cell :     3671.03
      direct lattice vectors                 reciprocal lattice vectors
    15.426331000  0.000000000  0.000000000     0.064824228  0.000000000  0.000000000
     0.000000000 15.426331000  0.000000000     0.000000000  0.064824228  0.000000000
     0.000000000  0.000000000 15.426331000     0.000000000  0.000000000  0.064824228

  length of vectors
    15.426331000 15.426331000 15.426331000     0.064824228  0.064824228  0.064824228


 
 old parameters found on file WAVECAR:
  energy-cutoff  :      500.00
  volume of cell :     3671.03
      direct lattice vectors                 reciprocal lattice vectors
    15.426331000  0.000000000  0.000000000     0.064824228  0.000000000  0.000000000
     0.000000000 15.426331000  0.000000000     0.000000000  0.064824228  0.000000000
     0.000000000  0.000000000 15.426331000     0.000000000  0.000000000  0.064824228

  length of vectors

 
 k-points in units of 2pi/SCALE and weight: Title                                   
   0.01620606  0.01620606  0.01620606       0.250
  -0.01620606  0.01620606  0.01620606       0.250
   0.01620606 -0.01620606  0.01620606       0.250
  -0.01620606 -0.01620606  0.01620606       0.250
 
 k-points in reciprocal lattice and weights: Title                                   
   0.25000000  0.25000000  0.25000000       0.250
  -0.25000000  0.25000000  0.25000000       0.250
   0.25000000 -0.25000000  0.25000000       0.250
  -0.25000000 -0.25000000  0.25000000       0.250
 
 position of ions in fractional coordinates (direct lattice) 
   0.87878696  0.37721575  0.94684333
   0.99630477  0.99332526  0.99317282
   0.99841825  0.99226691  0.49273218
   0.01018276  0.49683427  0.99607415
   0.99399986  0.50229084  0.50684069
   0.49536336  0.99335033  0.99998382
   0.50204548  0.00892168  0.49842247
   0.50264416  0.49524153  0.99643654
   0.49169652  0.49922673  0.49533815
   0.00679816  0.00384218  0.25567550
   0.00186035  0.00860593  0.75540158
   0.99372085  0.49267038  0.25179328
   0.99290903  0.49867999  0.74107352
   0.50535109  0.00940006  0.25061389
   0.49323478  0.00533496  0.75285902
   0.49244097  0.49552136  0.25728750
   0.50039870  0.50361381  0.75863740
   0.00072552  0.25273962  0.00041503
   0.99857305  0.24678958  0.49147696
   0.99861611  0.75746936  0.00518493
   0.99635007  0.75789839  0.50473885
   0.49596996  0.25852160  0.00174182
   0.50882478  0.24602486  0.49801827
   0.50770556  0.75576355  0.99963453
   0.50723925  0.75341339  0.50834041
   0.00039003  0.25769542  0.25623316
   0.00651539  0.24190794  0.74536508
   0.00643572  0.74861635  0.24290138
   0.99294614  0.75132605  0.74232038
   0.50819908  0.24121649  0.25213353
   0.50660976  0.24341703  0.75021530
   0.50616702  0.75118967  0.25192185
   0.50205392  0.74165506  0.74364671
   0.25728806  0.99759764  0.00537815
   0.25162129  0.99358481  0.50604040
   0.24658637  0.50878773  0.99751294
   0.25464744  0.49440625  0.50624347
   0.75723765  0.99925114  0.99376881
   0.74937211  0.00812874  0.49493265
   0.73798797  0.50386004  0.00562396
   0.75528914  0.49777944  0.50484754
   0.24518593  0.00252951  0.24326636
   0.25847227  0.99808214  0.74418107
   0.25451087  0.49136789  0.25164575
   0.24651090  0.50587977  0.74053026
   0.74425530  0.00184541  0.25548737
   0.74775241  0.00714056  0.75534763
   0.75525854  0.49744153  0.24252698
   0.75662346  0.49779808  0.74153988
   0.25852067  0.25202303  0.00576356
   0.25425911  0.25667900  0.50504224
   0.25281468  0.74254413  0.99398629
   0.25247608  0.75520887  0.49286472
   0.75519066  0.25067442  0.00745244
   0.74196709  0.24282745  0.49802583
   0.74145907  0.74867141  0.99390950
   0.74136265  0.75268740  0.49381623
   0.25108159  0.25762654  0.24382532
   0.24422897  0.25187543  0.74357507
   0.24369043  0.74722895  0.25597165
   0.24783743  0.74178580  0.75659579
   0.74216023  0.25136887  0.24222521
   0.74346187  0.24203924  0.74906904
   0.74534367  0.74916958  0.25689162
   0.75753483  0.74978430  0.75643033
   0.00925913  0.49242839  0.62412029
   0.99777176  0.01252354  0.37609946
   0.00242667  0.01007225  0.87212968
   0.49776080  0.48770615  0.37541096
   0.49126420  0.49208897  0.87486543
   0.00027444  0.75196405  0.12518533
   0.00314719  0.75451552  0.62345932
   0.50469371  0.74736458  0.62425406
   0.99361165  0.23743188  0.37726887
   0.25793496  0.00172421  0.12497570
   0.25922140  0.00360118  0.62491398
   0.23662831  0.49363910  0.62535423
   0.74786081  0.48606776  0.12476572
   0.74469279  0.48738575  0.62387030
   0.74807466  0.00566752  0.37619804
   0.74318597  0.00517752  0.87325269
   0.24619900  0.25112865  0.12584256
   0.25387973  0.25052747  0.62458154
   0.74002065  0.26535656  0.12720375
   0.25640203  0.74442141  0.37472769
   0.25338416  0.75138311  0.87534083
   0.75344370  0.74520188  0.37425917
   0.75022489  0.74545212  0.87541765
   0.12719413  0.51071269  0.99223005
   0.62367274  0.51612724  0.99689765
   0.12554173  0.00754609  0.24938781
   0.62464254  0.00737348  0.24718952
   0.62427170  0.26461459  0.49437225
   0.62443749  0.73332586  0.00129926
   0.62445476  0.76922169  0.49346764
   0.12505622  0.25268555  0.74827403
   0.12497301  0.74690672  0.25364196
   0.62529806  0.23879720  0.26313511
   0.62518869  0.25492067  0.74469339
   0.62241527  0.74911172  0.25278791
   0.37692464  0.99216330  0.98958683
   0.37545372  0.51156824  0.50572746
   0.87304829  0.99134494  0.99665107
   0.87482558  0.50937323  0.50149154
   0.37658888  0.99753101  0.76110817
   0.37353562  0.49075229  0.24736300
   0.87478362  0.49134887  0.25072164
   0.87487327  0.50821580  0.74420702
   0.37766739  0.25386338  0.00492748
   0.86882021  0.26359323  0.00030577
   0.87471270  0.74195896  0.74649481
   0.51799157  0.12268844  0.48849375
   0.99763997  0.12554236  0.73234216
   0.48947983  0.12497674  0.26888836
   0.50314506  0.12398781  0.75496422
   0.50298550  0.62502245  0.75477979
   0.00018311  0.37928442  0.98741191
   0.01072281  0.87363760  0.99366398
   0.98468401  0.87535529  0.49038531
   0.50968358  0.37486545  0.01253852
   0.51190632  0.87471261  0.00995391
   0.01185030  0.37407302  0.25840597
   0.26469515  0.62530715  0.00384020
   0.73259452  0.12541662  0.50975512
   0.24543515  0.62459269  0.74858516
   0.74967431  0.12482948  0.73727304
   0.26007094  0.37332623  0.49233788
   0.26165217  0.87563102  0.49888395
   0.23690722  0.37428709  0.25853104
   0.99815086  0.99393253  0.12660437
   0.00109453  0.98861127  0.62311790
   0.00094971  0.49958052  0.12417168
   0.49000036  0.01435623  0.12631231
   0.49295061  0.00381814  0.62255516
   0.50258989  0.51302519  0.12767025
   0.51037379  0.50489275  0.62415713
   0.00122881  0.50623289  0.37585197
   0.99226862  0.51055098  0.87171510
   0.50732992  0.98225442  0.37642043
   0.51976764  0.99231465  0.87512305
   0.00986819  0.25535010  0.13124677
   0.99900271  0.26833608  0.62075559
   0.50943381  0.23177608  0.12703987
   0.49595844  0.23965254  0.62205826
   0.49730385  0.73863690  0.12698378
   0.99280768  0.23849550  0.86920698
   0.99185085  0.74294806  0.37496852
   0.99911583  0.74337072  0.87337751
   0.49113551  0.26930564  0.37555140
   0.50137173  0.26052593  0.87433535
   0.49018579  0.76137284  0.37534211
   0.49671953  0.75801321  0.87420489
   0.24237479  0.49213716  0.12447243
   0.75190010  0.99590753  0.12635059
   0.74992836  0.98954924  0.62262283
   0.25018037  0.00228093  0.37536238
   0.24039696  0.99425264  0.87420352
   0.24887553  0.51368236  0.37494849
   0.26367397  0.50014627  0.87353566
   0.74714198  0.51163238  0.37440679
   0.75348490  0.51163596  0.87423325
   0.24979299  0.75559587  0.12503796
   0.24663851  0.75184175  0.62480347
   0.75153266  0.26771198  0.62231028
   0.75032108  0.75431424  0.12567075
   0.74505235  0.75413187  0.62412861
   0.25494875  0.24204561  0.37435035
   0.25569264  0.25085850  0.87433317
   0.76214707  0.23683252  0.37475589
   0.74850675  0.23802669  0.87464143
   0.12653113  0.00843119  0.00434731
   0.12495556  0.99168527  0.50092675
   0.12310182  0.49142784  0.48995626
   0.62540372  0.00963366  0.01097906
   0.62380714  0.97747112  0.50534658
   0.62542698  0.48602564  0.49593506
   0.12726639  0.99967242  0.74351482
   0.12342636  0.51187276  0.24945804
   0.12316861  0.49115104  0.76519878
   0.62371549  0.99403238  0.73669396
   0.62470478  0.50443144  0.25086340
   0.62620392  0.49033400  0.75784314
   0.13156774  0.24466967  0.99224347
   0.12378852  0.25610892  0.49762732
   0.12515327  0.73469536  0.99900115
   0.12377788  0.76088763  0.49266378
   0.62519381  0.24285194  0.99392101
   0.12525827  0.23172622  0.25914856
   0.12322356  0.75597053  0.75342785
   0.62624498  0.75575773  0.75285077
   0.37830720  0.01690624  0.49034310
   0.37396321  0.48872320  0.01148067
   0.87424135  0.01899309  0.50639331
   0.87184790  0.48807063  0.99487187
   0.37736455  0.99091059  0.25897937
   0.37460220  0.50077183  0.73685613
   0.87362402  0.99492417  0.24940380
   0.87410264  0.99506435  0.74565480
   0.37931285  0.23279923  0.49673073
   0.37651864  0.76544275  0.00376172
   0.37743577  0.73571522  0.50431742
   0.87386666  0.23818701  0.50700194
   0.87190092  0.76418409  0.00010608
   0.87191456  0.73434558  0.50579277
   0.37842356  0.26272016  0.24521799
   0.37692838  0.24851445  0.75126166
   0.37657488  0.75274882  0.24539117
   0.37508642  0.75315964  0.74616290
   0.87393069  0.26203043  0.24552023
   0.87331766  0.25336229  0.74558625
   0.87319399  0.75249087  0.24722636
   0.99516209  0.12393868  0.01024432
   0.00939422  0.12545260  0.51726562
   0.98480307  0.62530532  0.00090764
   0.01096794  0.62645448  0.50124048
   0.49892793  0.12417773  0.99000990
   0.48198659  0.62754981  0.99424690
   0.51521009  0.62680485  0.49039479
   0.98690076  0.12734577  0.23921752
   0.99266936  0.62312429  0.24902134
   0.01296964  0.62461487  0.74493530
   0.49539140  0.62581673  0.26250434
   0.99084103  0.37357375  0.48821435
   0.48506362  0.37140171  0.51292520
   0.48102753  0.87857738  0.50531762
   0.99258997  0.37479871  0.76141820
   0.99991068  0.87595081  0.25865244
   0.99818625  0.87583720  0.75538513
   0.51023092  0.37142877  0.23489002
   0.49467153  0.37359947  0.73855139
   0.50123343  0.87609411  0.23845698
   0.50139255  0.87532105  0.74682932
   0.25532398  0.12430025  0.99362826
   0.24026468  0.12418491  0.49767737
   0.23788288  0.62663608  0.50637091
   0.75492960  0.12525743  0.01166697
   0.76944062  0.62597279  0.01095385
   0.73429862  0.62535389  0.50721279
   0.26551715  0.12623480  0.25169485
   0.25057471  0.12456253  0.75725090
   0.25566546  0.62332098  0.23870748
   0.76417907  0.12650000  0.23990812
   0.75232072  0.62443249  0.23959702
   0.73706361  0.62436061  0.74065196
   0.24528353  0.37666339  0.99541776
   0.23743123  0.87350066  0.00251529
   0.74334271  0.37726051  0.97815996
   0.76342339  0.37238074  0.48375738
   0.73350071  0.87452062  0.00052107
   0.76883895  0.87652792  0.49667801
   0.25578503  0.37625338  0.75707930
   0.24937422  0.87537586  0.25280654
   0.24793825  0.87352990  0.74573985
   0.74040138  0.37424151  0.27095035
   0.75758529  0.37414080  0.76637289
   0.74811449  0.87547030  0.25117088
   0.75204926  0.87491921  0.75066285
 
 position of ions in cartesian coordinates  (Angst):
  13.55645850  5.81905495 14.60631866
  15.36932722 15.32336431 15.32101262
  15.40193043 15.30703783  7.60104978
   0.15708260  7.66432993 15.36576960
  15.33377086  7.74850470  7.81869224
   7.64163919 15.32375093 15.42608146
   7.74471971  0.13762879  7.68882993
   7.75395525  7.63975972 15.37135994
   7.58507320  7.70123678  7.64125033
   0.10487064  0.05927078  3.94413488
   0.02869833  0.13275792 11.65307474
  15.32946673  7.60009641  3.88424651
  15.31694331  7.69280264 11.43204535
   7.79571325  0.14500845  3.86605288
   7.60880302  0.08229885 11.61385245
   7.59655734  7.64407650  3.96900221
   7.71931601  7.76891332 11.70299158
   0.01119210  3.89884500  0.00640237
  15.40431844  3.80705779  7.58168632
  15.40498261 11.68497309  0.07998437
  15.37002590 11.69159143  7.78626851
   7.65099675  3.98803979  0.02686994
   7.84929944  3.79526090  7.68259467
   7.83203402 11.65865862 15.42069312
   7.82484061 11.62240434  7.84182749
   0.00601672  3.97529491  3.95273760
   0.10050856  3.73175188 11.49824838
   0.09927952 11.54840356  3.74707710
  15.31751583 11.59020436 11.45127994
   7.83964723  3.72108543  3.88949527
   7.81512992  3.75503173 11.57306960
   7.80830000 11.58810055  3.88622986
   7.74484987 11.44101640 11.47174028
   3.96901074 15.38927135  0.08296516
   3.88159328 15.32736809  7.80634666
   3.80392292  7.84872797 15.38796472
   3.92827573  7.62687450  7.80947929
  11.68139866 15.41477880 15.33020659
  11.56006225  0.12539669  7.63499485
  11.38444668  7.77271168  0.08675709
  11.65134030  7.67891039  7.78794522
   3.78231930  0.03902101  3.75270738
   3.98727874 15.39674552 11.47998347
   3.92616891  7.58000378  3.88197060
   3.80275870  7.80386881 11.42366495
  11.48112867  0.02846794  3.94123268
  11.53507622  0.11015271 11.65224250
  11.65086824  7.67369776  3.74130140
  11.67192391  7.67919796 11.43923968
   3.98802543  3.88779073  0.08891057
   3.92228514  3.95961516  7.79094884
   3.90000290 11.45473160 15.33356155
   3.89477954 11.65010206  7.60309425
  11.64982113  3.86698653  0.11496376
  11.44582986  3.74593658  7.68271132
  11.43799301 11.54925293 15.33237696
  11.43650566 11.61120491  7.61777265
   3.87326779  3.97423223  3.76133004
   3.76755700  3.88551372 11.47063511
   3.75924920 11.52700109  3.94870342
   3.82322223 11.44303333 11.67149713
  11.44880933  3.87769937  3.73664625
  11.46888896  3.73377738 11.55538694
  11.49791815 11.55693790  3.96289511
  11.68598306 11.56642079 11.66894463
   0.14283439  7.59636341  9.62788619
  15.39195747  0.19319221  5.80183478
   0.03743456  0.15537785 13.45376107
   7.67862283  7.52351644  5.79121372
   7.57840418  7.59112730 13.49596374
   0.00423353 11.60004637  1.93115039
   0.04854965 11.63940621  9.61768983
   7.78557228 11.52909340  9.62994969
  15.32778228  3.66270283  5.81987439
   3.97899002  0.02659830  1.92791648
   3.99883505  0.05555306  9.64012994
   3.65030657  7.61504010  9.64692136
  11.53674832  7.49824212  1.92467733
  11.48787741  7.51857397  9.62402971
  11.54004727  0.08742909  5.80335549
  11.46463275  0.07987011 13.47108499
   3.79794728  3.87399366  1.94128902
   3.91643279  3.86471974  9.63500158
  11.41580354  4.09347814  1.96228721
   3.95534262 11.48369107  5.78067345
   3.90878789 11.59108463 13.50329731
  11.62287187 11.49573090  5.77344581
  11.57321755 11.49959109 13.50448250
   1.96213876  7.87842300 15.30646922
   9.62098206  7.96194958 15.37847317
   1.93664824  0.11640855  3.84713893
   9.63594260  0.11374569  3.81322742
   9.63022182  4.08203226  7.62634991
   9.63277947 11.31252745  0.02004278
   9.63304587 11.86626838  7.61239518
   1.92915857  3.89801099 11.54312293
   1.92787505 11.52203035  3.91276488
   9.64605481  3.68376466  4.05920930
   9.64436762  3.93249061 11.48788680
   9.60158401 11.55604541  3.89958994
   5.81456432 15.30543941 15.26569395
   5.79187339  7.89162095  7.80151920
  13.46793185 15.29281512 15.37466935
  13.49534889  7.85775999  7.73617450
   5.80938476 15.38824347 11.74110662
   5.76228414  7.57050730  3.81590350
  13.49470168  7.57971026  3.86771506
  13.49608464  7.83990510 11.48038375
   5.82602210  3.91618045  0.07601300
  13.40270808  4.06627646  0.00471698
  13.49360757 11.44570444 11.51567599
   7.99070936  1.89263253  7.53566634
  15.38992435  1.93665805 11.29735258
   7.55087794  1.92793260  4.14796090
   7.76168224  1.91267707 11.64632792
   7.75922084  9.64180320 11.64348291
   0.00282473  5.85096702 15.23214298
   0.16541357 13.47702281 15.32858946
  15.19006151 13.50352039  7.56484608
   7.86254763  5.78279858  0.19342331
   7.89683637 13.49360626  0.15355238
   0.18280670  5.77057420  3.98625599
   4.08327503  9.64619504  0.05924016
  11.30124561  1.93471834  7.86365115
   3.78616389  9.63517350 11.54792244
  11.56472398  1.92566086 11.37341798
   4.01194037  5.75905402  7.59496710
   4.03633297 13.50777394  7.69594891
   3.65460923  5.77387652  3.98818541
  15.39780560 15.33273221  1.95304089
   0.01688462 15.25064467  9.61242301
   0.01465057  7.70669440  1.91551341
   7.55890780  0.22146392  1.94853547
   7.60441934  0.05889986  9.60374195
   7.75311800  7.91409634  1.96948361
   7.87319494  7.78864262  9.62845454
   0.01895606  7.80931616  5.79801692
  15.30706424  7.87592837 13.44736563
   7.82623929 15.15258185  5.80678622
   8.01810761 15.30777418 13.49993790
   0.15222996  3.93911524  2.02465606
  15.41094647  4.13944126  9.57598118
   7.85869453  3.57545449  1.95975914
   7.65081907  3.69695936  9.59607667
   7.67157372 11.39445733  1.95889378
  15.31537983  3.67911054 13.40867456
  15.30061958 11.46096276  5.78438844
  15.41269148 11.46748275 13.47301049
   7.57641893  4.15439790  5.79338015
   7.73432625  4.01895920 13.48778652
   7.56176818 11.74518944  5.79015163
   7.66255989 11.69336266 13.48577404
   3.73895373  7.59187074  1.92015291
  11.59905975 15.36319914  1.94912601
  11.56864309 15.26511415  9.60478588
   3.85936523  0.03518633  5.79046439
   3.70844301 15.33767032 13.48575284
   3.83923624  7.92423417  5.78407951
   4.06752189  7.71542184 13.47545027
  11.52565945  7.89261040  5.77572314
  11.62350749  7.89266575 13.48621150
   3.85338930 11.65607192  1.92887693
   3.80472730 11.59815971  9.63842513
  11.59339154  4.12981358  9.59996435
  11.57470139 11.63630111  1.93863860
  11.49342417 11.63348780  9.62801452
   3.93292382  3.73387573  5.77485246
   3.94439936  3.86982631 13.48775282
  11.75713291  3.65345677  5.78110846
  11.54671282  3.67187855 13.49250823
   1.95191103  0.13006233  0.06706301
   1.92760586 15.29806528  7.72746183
   1.89900938  7.58092847  7.55822748
   9.64768485  0.14861204  0.16936665
   9.62305542 15.07879304  7.79564363
   9.64804358  7.49759243  7.65045846
   1.96325342 15.42127772 11.46970574
   1.90401586  7.89631861  3.84822234
   1.90003981  7.57665854 11.80420964
   9.62164157 15.33427248 11.36448485
   9.63690279  7.78152639  3.86990185
   9.66002891  7.56405465 11.69073919
   2.02960750  3.77435527 15.30667620
   1.90960261  3.95082100  7.67656377
   1.93065579 11.33365378 15.41092233
   1.90943850 11.73770444  7.59999450
   9.64444664  3.74631439 15.33255453
   1.93227546  3.57468535  3.99771153
   1.90088743 11.66185168 11.62262732
   9.66066235 11.65856895 11.61372514
   5.83589209  0.26080128  7.56419494
   5.76888029  7.53920591  0.17710457
  13.48633651  0.29299373  7.81179075
  13.44941433  7.52913916 15.34722274
   5.82135044 15.28611479  3.99510143
   5.77873754  7.72507208 11.36698662
  13.47681331 15.34802954  3.84738558
  13.48419662 15.35019199 11.50271781
   5.85140553  3.59123802  7.66273260
   5.80830124 11.80797321  0.05802957
   5.82244907 11.34938656  7.77976747
  13.48055629  3.67435160  7.82117972
  13.45023226 11.78855677  0.00163635
  13.45044264 11.32825806  7.80252674
   5.83768705  4.05280818  3.78281390
   5.81462198  3.83366621 11.58921110
   5.80916869 11.61215251  3.78548534
   5.78620734 11.61848994 11.51055581
  13.48154413  4.04216822  3.78747637
  13.47208733  3.90845053 11.50166033
  13.47017952 11.60817323  3.81379572
  15.35169983  1.91191909  0.15803221
   0.14491830  1.93527339  7.97951070
  15.19189810  9.64616685  0.01400150
   0.16919508  9.66389414  7.73230153
   7.69662732  1.91560671 15.27222048
   7.43528468  9.68079114 15.33758171
   7.94780133  9.66929915  7.56499242
  15.22425785  1.96447799  3.69024868
  15.31324608  9.61252150  3.84148556
   0.20007399  9.63551580 11.49161857
   7.64207171  9.65405605  4.04947888
  15.28504174  5.76287227  7.53135613
   7.48275196  5.72936569  7.91255388
   7.42048996 13.55322550  7.79519681
  15.31202141  5.78176889 11.74588920
  15.42495314 13.51270712  3.99005816
  15.39835155 13.51095459 11.65282110
   7.87099103  5.72978321  3.62349125
   7.63096671  5.76326912 11.39313827
   7.73219272 13.51491778  3.67851626
   7.73464746 13.50299230 11.52083629
   3.93871218  1.91749674 15.32803838
   3.70640246  1.91571757  7.67733587
   3.66966002  9.66669555  7.81144531
  11.64579382  1.93226257  0.17997853
  11.86964570  9.65646346  0.16897773
  11.32753357  9.64691617  7.82443243
   4.09595541  1.94733981  3.88272814
   3.86544837  1.92154288 11.68160297
   3.94397994  9.61555578  3.68238061
  11.78847929  1.95143089  3.70090200
  11.60554845  9.63270225  3.69610293
  11.37018718  9.63159347 11.42554231
   3.78382486  5.81053411 15.35564382
   3.66269278 13.47491035  0.03880165
  11.46705076  5.81974553 15.08941928
  11.77682184  5.74446857  7.46260144
  11.31522480 13.49064462  0.00803814
  11.86036411 13.52160984  7.66191937
   3.94582460  5.80420912 11.67895593
   3.84692919 13.50383775  3.89987743
   3.82477746 13.47536132 11.50402973
  11.42167669  5.77317345  4.17976976
  11.68676141  5.77161981 11.82232192
  11.54066179 13.50529463  3.87464514
  11.60136084 13.49679330 11.57997366
 


--------------------------------------------------------------------------------------------------------


 k-point  1 :   0.2500 0.2500 0.2500  plane waves:   93161
 k-point  2 :  -0.2500 0.2500 0.2500  plane waves:   93161
 k-point  3 :   0.2500-0.2500 0.2500  plane waves:   93161
 k-point  4 :  -0.2500-0.2500 0.2500  plane waves:   93161

 maximum and minimum number of plane-waves per node :     11686    11606

 maximum number of plane-waves:     93161
 maximum index in each direction: 
   IXMAX=   28   IYMAX=   28   IZMAX=   27
   IXMIN=  -28   IYMIN=  -28   IZMIN=  -28


 real space projection operators:
  total allocation   :     105600.00 KBytes
  max/ min on nodes  :      13235.57      13168.87


 parallel 3D FFT for wavefunctions:
    minimum data exchange during FFTs selected (reduces bandwidth)
 parallel 3D FFT for charge:
    minimum data exchange during FFTs selected (reduces bandwidth)


 total amount of memory used by VASP MPI-rank0   291501. kBytes
=======================================================================

   base      :      30000. kBytes
   nonlr-proj:      49466. kBytes
   fftplans  :      27976. kBytes
   grid      :      34041. kBytes
   one-center:       1026. kBytes
   wavefun   :     148992. kBytes
 
     INWAV:  cpu time   56.8818: real time   60.3486
 Broyden mixing: mesh for mixing (old mesh)
   NGX = 57   NGY = 57   NGZ = 57
  (NGX  =240   NGY  =240   NGZ  =240)
  gives a total of 185193 points

 charge density for first step will be calculated from the start-wavefunctions


--------------------------------------------------------------------------------------------------------


 Maximum index for non-local projection operator          971
 Maximum index for augmentation-charges         3290 (set IRDMAX)


--------------------------------------------------------------------------------------------------------


 initial charge from wavefunction
 First call to EWALD:  gamma=   0.115
 Maximum number of real-space cells 3x 3x 3
 Maximum number of reciprocal cells 3x 3x 3

    FEWALD:  cpu time    0.3238: real time    0.3261


--------------------------------------- Iteration      1(   1)  ---------------------------------------


    POTLOK:  cpu time    0.5946: real time    0.6050
    SETDIJ:  cpu time    1.3204: real time    1.4120
     EDDAV:  cpu time  107.8938: real time  108.7548
       DOS:  cpu time    0.0021: real time    0.0021
    CHARGE:  cpu time    5.2738: real time    5.2776
    MIXING:  cpu time    0.0137: real time    0.0138
    --------------------------------------------
      LOOP:  cpu time  115.0986: real time  116.0654

 eigenvalue-minimisations  : 18156
 total energy-change (2. order) :-0.1757869E+04  (-0.3895109E-06)
 number of electron    1923.0000022 magnetization       1.0000000
 augmentation part      496.7883679 magnetization       0.5854978

 Broyden mixing:
  rms(total) = 0.45541E-03    rms(broyden)= 0.42729E-03
  rms(prec ) = 0.50527E-03
  weight for this iteration     100.00

 Free energy of the ion-electron system (eV)
  ---------------------------------------------------
  alpha Z        PSCENC =      6118.73324990
  Ewald energy   TEWEN  =   -103702.67489334
  -Hartree energ DENC   =    -64933.37120901
  -exchange      EXHF   =         0.00000000
  -V(xc)+E(xc)   XCENC  =      8967.14739046
  PAW double counting   =    196838.63113022  -197842.68349307
  entropy T*S    EENTRO =        -0.00000000
  eigenvalues    EBANDS =    -25780.90414984
  atomic energy  EATOM  =    178577.25249613
  Solvation  Ediel_sol  =         0.00000000
  ---------------------------------------------------
  free energy    TOTEN  =     -1757.86947856 eV

  energy without entropy =    -1757.86947856  energy(sigma->0) =    -1757.86947856


--------------------------------------------------------------------------------------------------------




--------------------------------------- Iteration      1(   2)  ---------------------------------------


    POTLOK:  cpu time    0.2814: real time    0.2834
    SETDIJ:  cpu time    1.4803: real time    1.4814
     EDDAV:  cpu time  101.5239: real time  102.1320
       DOS:  cpu time    0.0020: real time    0.0020
    --------------------------------------------
      LOOP:  cpu time  103.2875: real time  103.8988

 eigenvalue-minimisations  : 16704
 total energy-change (2. order) : 0.1166190E-06  (-0.3398149E-06)
 number of electron    1923.0000022 magnetization       1.0000000
 augmentation part      496.7883679 magnetization       0.5854978

 Free energy of the ion-electron system (eV)
  ---------------------------------------------------
  alpha Z        PSCENC =      6118.73324990
  Ewald energy   TEWEN  =   -103702.67489334
  -Hartree energ DENC   =    -64933.37309605
  -exchange      EXHF   =         0.00000000
  -V(xc)+E(xc)   XCENC  =      8967.14727671
  PAW double counting   =    196838.61703370  -197842.66908898
  entropy T*S    EENTRO =        -0.00000000
  eigenvalues    EBANDS =    -25780.90245650
  atomic energy  EATOM  =    178577.25249613
  Solvation  Ediel_sol  =         0.00000000
  ---------------------------------------------------
  free energy    TOTEN  =     -1757.86947844 eV

  energy without entropy =    -1757.86947844  energy(sigma->0) =    -1757.86947844


--------------------------------------------------------------------------------------------------------




 average (electrostatic) potential at core
  the test charge radii are     0.7079  1.0397  0.7215  0.7167
  (the norm of the test charge is              1.0000)
       1 -62.5826       2 -58.4739       3 -58.8438       4 -58.5767       5 -58.9142
       6 -58.8515       7 -59.7892       8 -58.5331       9 -58.7348      10 -58.8904
      11 -58.6156      12 -58.9618      13 -58.8733      14 -59.1026      15 -58.9103
      16 -58.7790      17 -58.7374      18 -56.7813      19 -59.4463      20 -58.6308
      21 -58.8969      22 -58.6248      23 -59.4607      24 -58.8735      25 -58.9218
      26 -59.0693      27 -58.6555      28 -58.7067      29 -58.8742      30 -59.0904
      31 -58.9689      32 -59.4719      33 -58.8195      34 -58.8326      35 -58.8627
      36 -58.7420      37 -58.4590      38 -58.7225      39 -59.1685      40 -58.7054
      41 -58.9848      42 -58.8286      43 -58.8791      44 -58.7488      45 -58.6301
      46 -59.1754      47 -58.8403      48 -58.9253      49 -58.8925      50 -58.7267
      51 -58.6660      52 -58.7229      53 -58.8413      54 -58.6141      55 -59.2528
      56 -58.8926      57 -59.0699      58 -58.7333      59 -58.7398      60 -58.7667
      61 -58.7283      62 -58.9436      63 -58.8945      64 -59.1609      65 -58.9051
      66 -74.1709      67 -73.9755      68 -73.7984      69 -73.8700      70 -73.8369
      71 -73.8679      72 -74.0032      73 -74.2420      74 -74.4795      75 -73.9446
      76 -74.0020      77 -73.9183      78 -74.0260      79 -74.0461      80 -74.2634
      81 -74.0227      82 -73.8969      83 -73.8660      84 -74.2628      85 -73.9314
      86 -73.8960      87 -74.2220      88 -74.0913      89 -73.9736      90 -73.9848
      91 -74.0090      92 -74.2296      93 -74.6064      94 -74.1432      95 -74.2547
      96 -73.9322      97 -73.9629      98 -74.3326      99 -74.0689     100 -74.3550
     101 -73.9321     102 -73.8220     103 -73.8468     104 -73.9974     105 -74.2056
     106 -73.9318     107 -74.0576     108 -74.1431     109 -73.8846     110 -73.7739
     111 -74.1823     112 -74.7962     113 -74.0117     114 -74.3966     115 -74.0834
     116 -73.9902     117 -73.5856     118 -73.7865     119 -74.1984     120 -73.8125
     121 -73.9538     122 -74.2760     123 -74.0203     124 -74.4553     125 -74.0179
     126 -74.1877     127 -73.8032     128 -73.9450     129 -74.0479     130 -78.3068
     131 -78.3348     132 -79.1671     133 -79.5372     134 -79.7826     135 -78.2864
     136 -78.2679     137 -79.0036     138 -78.9148     139 -79.8267     140 -79.4550
     141 -78.8226     142 -79.0146     143 -79.4598     144 -79.6267     145 -79.3680
     146 -78.8210     147 -78.3920     148 -78.3569     149 -79.6894     150 -79.3712
     151 -79.2263     152 -79.0600     153 -78.9984     154 -78.5548     155 -78.5800
     156 -78.4052     157 -78.3737     158 -78.7995     159 -78.7751     160 -78.4307
     161 -78.4274     162 -78.3805     163 -78.3231     164 -79.3560     165 -78.5510
     166 -78.5919     167 -78.3580     168 -78.2893     169 -79.1879     170 -79.0485
     171 -78.2771     172 -79.4286     173 -78.3284     174 -78.2565     175 -79.7842
     176 -78.2942     177 -78.9166     178 -78.4021     179 -78.8890     180 -78.9969
     181 -78.4201     182 -78.8934     183 -78.3169     184 -79.3515     185 -78.9642
     186 -79.0796     187 -78.4905     188 -79.1658     189 -78.9731     190 -79.0058
     191 -79.7094     192 -78.5177     193 -79.5418     194 -78.5714     195 -78.5541
     196 -79.0232     197 -78.4931     198 -79.0944     199 -79.0906     200 -78.8735
     201 -78.9822     202 -79.3431     203 -78.8157     204 -78.9723     205 -78.9770
     206 -78.4508     207 -78.5428     208 -79.1717     209 -79.1138     210 -78.4943
     211 -78.6307     212 -78.3796     213 -79.1862     214 -78.3106     215 -79.0171
     216 -78.2461     217 -78.2974     218 -79.1595     219 -78.9533     220 -78.9474
     221 -79.1691     222 -79.2898     223 -79.3211     224 -79.1326     225 -79.1485
     226 -78.9751     227 -79.0711     228 -78.9345     229 -79.0422     230 -78.4936
     231 -79.2189     232 -78.4608     233 -78.9851     234 -78.2853     235 -78.3044
     236 -79.4024     237 -79.4501     238 -79.1885     239 -78.8986     240 -79.0846
     241 -78.8598     242 -79.5431     243 -79.5188     244 -79.2339     245 -78.7777
     246 -78.8408     247 -79.5071     248 -79.0577     249 -79.3748     250 -79.0983
     251 -78.8882     252 -79.0562     253 -78.9080     254 -79.5217     255 -79.0252
     256 -79.5426     257 -79.0267
 
 
 
 E-fermi :  -0.7052     XC(G=0):  -9.0573     alpha+bet : -7.7421


 spin component 1

 k-point     1 :       0.2500    0.2500    0.2500
  band No.  band energies     occupation 
      1     -43.2728      1.00000
      2     -35.7945      1.00000
      3     -35.7712      1.00000
      4     -35.5900      1.00000
      5     -35.4815      1.00000
      6     -35.4375      1.00000
      7     -35.4292      1.00000
      8     -35.4281      1.00000
      9     -35.4084      1.00000
     10     -35.3241      1.00000
     11     -35.3076      1.00000
     12     -35.2669      1.00000
     13     -35.2383      1.00000
     14     -35.2367      1.00000
     15     -35.2155      1.00000
     16     -35.1879      1.00000
     17     -35.1623      1.00000
     18     -35.1462      1.00000
     19     -35.1418      1.00000
     20     -35.1300      1.00000
     21     -35.1177      1.00000
     22     -35.0699      1.00000
     23     -35.0583      1.00000
     24     -35.0324      1.00000
     25     -35.0250      1.00000
     26     -35.0216      1.00000
     27     -35.0179      1.00000
     28     -35.0105      1.00000
     29     -34.9999      1.00000
     30     -34.9985      1.00000
     31     -34.9816      1.00000
     32     -34.9743      1.00000
     33     -34.9732      1.00000
     34     -34.9698      1.00000
     35     -34.9660      1.00000
     36     -34.9605      1.00000
     37     -34.9518      1.00000
     38     -34.9507      1.00000
     39     -34.9485      1.00000
     40     -34.9455      1.00000
     41     -34.9436      1.00000
     42     -34.9425      1.00000
     43     -34.9401      1.00000
     44     -34.9263      1.00000
     45     -34.9239      1.00000
     46     -34.9222      1.00000
     47     -34.9162      1.00000
     48     -34.9078      1.00000
     49     -34.9071      1.00000
     50     -34.8941      1.00000
     51     -34.8905      1.00000
     52     -34.8883      1.00000
     53     -34.8870      1.00000
     54     -34.8759      1.00000
     55     -34.8752      1.00000
     56     -34.8702      1.00000
     57     -34.8683      1.00000
     58     -34.8628      1.00000
     59     -34.8571      1.00000
     60     -34.8533      1.00000
     61     -34.8482      1.00000
     62     -34.8437      1.00000
     63     -34.8420      1.00000
     64     -34.8394      1.00000
     65     -34.8243      1.00000
     66     -34.8219      1.00000
     67     -34.8214      1.00000
     68     -34.8186      1.00000
     69     -34.8167      1.00000
     70     -34.8099      1.00000
     71     -34.8088      1.00000
     72     -34.8064      1.00000
     73     -34.8029      1.00000
     74     -34.8027      1.00000
     75     -34.7991      1.00000
     76     -34.7965      1.00000
     77     -34.7947      1.00000
     78     -34.7930      1.00000
     79     -34.7910      1.00000
     80     -34.7907      1.00000
     81     -34.7906      1.00000
     82     -34.7824      1.00000
     83     -34.7755      1.00000
     84     -34.7693      1.00000
     85     -34.7621      1.00000
     86     -34.7619      1.00000
     87     -34.7618      1.00000
     88     -34.7606      1.00000
     89     -34.7597      1.00000
     90     -34.7521      1.00000
     91     -34.7456      1.00000
     92     -34.7427      1.00000
     93     -34.7418      1.00000
     94     -34.7399      1.00000
     95     -34.7386      1.00000
     96     -34.7376      1.00000
     97     -34.7371      1.00000
     98     -34.7332      1.00000
     99     -34.7330      1.00000
    100     -34.7304      1.00000
    101     -34.7298      1.00000
    102     -34.7285      1.00000
    103     -34.7255      1.00000
    104     -34.7230      1.00000
    105     -34.7228      1.00000
    106     -34.7202      1.00000
    107     -34.7200      1.00000
    108     -34.7183      1.00000
    109     -34.7152      1.00000
    110     -34.7142      1.00000
    111     -34.7129      1.00000
    112     -34.7122      1.00000
    113     -34.7101      1.00000
    114     -34.7101      1.00000
    115     -34.7087      1.00000
    116     -34.7055      1.00000
    117     -34.7002      1.00000
    118     -34.6928      1.00000
    119     -34.6854      1.00000
    120     -34.6834      1.00000
    121     -34.6804      1.00000
    122     -34.6771      1.00000
    123     -34.6768      1.00000
    124     -34.6728      1.00000
    125     -34.6686      1.00000
    126     -34.6669      1.00000
    127     -34.6664      1.00000
    128     -34.6639      1.00000
    129     -34.6603      1.00000
    130     -34.6559      1.00000
    131     -34.6494      1.00000
    132     -34.6461      1.00000
    133     -34.6443      1.00000
    134     -34.6418      1.00000
    135     -34.6381      1.00000
    136     -34.6366      1.00000
    137     -34.6299      1.00000
    138     -34.6283      1.00000
    139     -34.6280      1.00000
    140     -34.6203      1.00000
    141     -34.6183      1.00000
    142     -34.6173      1.00000
    143     -34.6152      1.00000
    144     -34.6144      1.00000
    145     -34.6104      1.00000
    146     -34.6078      1.00000
    147     -34.6029      1.00000
    148     -34.5976      1.00000
    149     -34.5952      1.00000
    150     -34.5908      1.00000
    151     -34.5902      1.00000
    152     -34.5850      1.00000
    153     -34.5845      1.00000
    154     -34.5828      1.00000
    155     -34.5764      1.00000
    156     -34.5735      1.00000
    157     -34.5719      1.00000
    158     -34.5707      1.00000
    159     -34.5694      1.00000
    160     -34.5665      1.00000
    161     -34.5590      1.00000
    162     -34.5509      1.00000
    163     -34.5459      1.00000
    164     -34.5443      1.00000
    165     -34.5438      1.00000
    166     -34.5426      1.00000
[...]
   81        1.573   3.458   0.000   5.031
   82        1.574   3.459   0.000   5.034
   83        1.574   3.459   0.000   5.033
   84        1.576   3.467   0.000   5.043
   85        1.575   3.461   0.000   5.036
   86        1.575   3.464   0.000   5.039
   87        1.576   3.461   0.000   5.037
   88        1.575   3.464   0.000   5.038
   89        1.575   3.468   0.000   5.043
   90        1.577   3.460   0.000   5.037
   91        1.574   3.458   0.000   5.032
   92        1.574   3.457   0.000   5.032
   93        1.578   3.465   0.000   5.043
   94        1.576   3.466   0.000   5.042
   95        1.576   3.467   0.000   5.043
   96        1.574   3.463   0.000   5.037
   97        1.575   3.464   0.000   5.039
   98        1.576   3.470   0.000   5.046
   99        1.575   3.464   0.000   5.039
  100        1.575   3.457   0.000   5.032
  101        1.574   3.453   0.000   5.028
  102        1.575   3.455   0.000   5.029
  103        1.575   3.455   0.000   5.030
  104        1.574   3.456   0.000   5.030
  105        1.577   3.469   0.000   5.046
  106        1.574   3.460   0.000   5.035
  107        1.574   3.459   0.000   5.034
  108        1.575   3.470   0.000   5.045
  109        1.576   3.467   0.000   5.042
  110        1.570   3.475   0.000   5.045
  111        1.576   3.470   0.000   5.047
  112        1.576   3.454   0.000   5.031
  113        1.576   3.470   0.000   5.046
  114        1.577   3.467   0.000   5.044
  115        1.574   3.463   0.000   5.037
  116        1.575   3.460   0.000   5.035
  117        1.567   3.486   0.000   5.053
  118        1.576   3.461   0.000   5.037
  119        1.576   3.469   0.000   5.045
  120        1.575   3.456   0.000   5.030
  121        1.574   3.456   0.000   5.030
  122        1.577   3.466   0.000   5.042
  123        1.577   3.470   0.000   5.047
  124        1.576   3.462   0.000   5.038
  125        1.576   3.473   0.000   5.049
  126        1.576   3.468   0.000   5.043
  127        1.574   3.455   0.000   5.029
  128        1.574   3.457   0.000   5.031
  129        1.576   3.466   0.000   5.043
  130        1.737   4.366   0.000   6.103
  131        1.737   4.368   0.000   6.105
  132        1.737   4.378   0.000   6.115
  133        1.738   4.382   0.000   6.120
  134        1.738   4.381   0.000   6.118
  135        1.737   4.366   0.000   6.102
  136        1.736   4.364   0.000   6.100
  137        1.739   4.380   0.000   6.118
  138        1.738   4.380   0.000   6.119
  139        1.739   4.382   0.000   6.121
  140        1.739   4.382   0.000   6.121
  141        1.737   4.380   0.000   6.118
  142        1.738   4.377   0.000   6.114
  143        1.738   4.381   0.000   6.119
  144        1.738   4.383   0.000   6.122
  145        1.738   4.380   0.000   6.118
  146        1.737   4.380   0.000   6.117
  147        1.737   4.368   0.000   6.104
  148        1.736   4.367   0.000   6.103
  149        1.740   4.381   0.000   6.120
  150        1.738   4.384   0.000   6.122
  151        1.738   4.373   0.000   6.111
  152        1.737   4.377   0.000   6.114
  153        1.737   4.380   0.000   6.117
  154        1.737   4.370   0.000   6.107
  155        1.737   4.370   0.000   6.107
  156        1.737   4.369   0.000   6.105
  157        1.737   4.366   0.000   6.103
  158        1.738   4.374   0.000   6.112
  159        1.738   4.373   0.000   6.111
  160        1.737   4.365   0.000   6.102
  161        1.736   4.366   0.000   6.102
  162        1.737   4.369   0.000   6.105
  163        1.736   4.366   0.000   6.103
  164        1.738   4.376   0.000   6.113
  165        1.737   4.368   0.000   6.105
  166        1.736   4.368   0.000   6.105
  167        1.737   4.370   0.000   6.106
  168        1.737   4.370   0.000   6.106
  169        1.738   4.372   0.000   6.111
  170        1.737   4.376   0.000   6.113
  171        1.737   4.367   0.000   6.103
  172        1.737   4.384   0.000   6.121
  173        1.737   4.367   0.000   6.104
  174        1.737   4.366   0.000   6.103
  175        1.739   4.376   0.000   6.115
  176        1.737   4.363   0.000   6.100
  177        1.737   4.378   0.000   6.115
  178        1.737   4.367   0.000   6.103
  179        1.738   4.373   0.000   6.111
  180        1.738   4.378   0.000   6.116
  181        1.736   4.368   0.000   6.104
  182        1.737   4.375   0.000   6.113
  183        1.737   4.378   0.000   6.115
  184        1.737   4.377   0.000   6.114
  185        1.737   4.377   0.000   6.114
  186        1.737   4.376   0.000   6.113
  187        1.737   4.375   0.000   6.112
  188        1.738   4.374   0.000   6.112
  189        1.738   4.380   0.000   6.119
  190        1.738   4.380   0.000   6.118
  191        1.739   4.380   0.000   6.119
  192        1.738   4.374   0.000   6.112
  193        1.738   4.382   0.000   6.121
  194        1.735   4.383   0.000   6.118
  195        1.737   4.368   0.000   6.105
  196        1.737   4.379   0.000   6.116
  197        1.737   4.367   0.000   6.104
  198        1.737   4.380   0.000   6.117
  199        1.738   4.377   0.000   6.115
  200        1.738   4.376   0.000   6.114
  201        1.738   4.375   0.000   6.112
  202        1.738   4.376   0.000   6.114
  203        1.737   4.376   0.000   6.113
  204        1.738   4.373   0.000   6.110
  205        1.737   4.374   0.000   6.111
  206        1.737   4.369   0.000   6.106
  207        1.737   4.369   0.000   6.106
  208        1.737   4.380   0.000   6.117
  209        1.737   4.374   0.000   6.111
  210        1.737   4.369   0.000   6.106
  211        1.737   4.370   0.000   6.108
  212        1.737   4.377   0.000   6.113
  213        1.739   4.368   0.000   6.107
  214        1.736   4.367   0.000   6.104
  215        1.738   4.375   0.000   6.113
  216        1.736   4.364   0.000   6.100
  217        1.737   4.362   0.000   6.099
  218        1.736   4.373   0.000   6.110
  219        1.738   4.374   0.000   6.113
  220        1.738   4.379   0.000   6.116
  221        1.738   4.379   0.000   6.117
  222        1.737   4.376   0.000   6.113
  223        1.737   4.376   0.000   6.113
  224        1.738   4.374   0.000   6.111
  225        1.738   4.373   0.000   6.110
  226        1.738   4.373   0.000   6.111
  227        1.737   4.377   0.000   6.114
  228        1.738   4.376   0.000   6.114
  229        1.737   4.373   0.000   6.111
  230        1.737   4.368   0.000   6.105
  231        1.738   4.372   0.000   6.110
  232        1.737   4.369   0.000   6.105
  233        1.737   4.379   0.000   6.117
  234        1.737   4.366   0.000   6.103
  235        1.737   4.366   0.000   6.102
  236        1.738   4.387   0.000   6.125
  237        1.739   4.381   0.000   6.120
  238        1.737   4.374   0.000   6.110
  239        1.738   4.375   0.000   6.113
  240        1.737   4.380   0.000   6.117
  241        1.738   4.375   0.000   6.113
  242        1.738   4.382   0.000   6.121
  243        1.738   4.384   0.000   6.122
  244        1.738   4.378   0.000   6.115
  245        1.738   4.377   0.000   6.115
  246        1.738   4.375   0.000   6.113
  247        1.737   4.384   0.000   6.121
  248        1.737   4.371   0.000   6.109
  249        1.738   4.384   0.000   6.122
  250        1.738   4.370   0.000   6.108
  251        1.738   4.379   0.000   6.118
  252        1.737   4.379   0.000   6.116
  253        1.738   4.378   0.000   6.117
  254        1.739   4.382   0.000   6.121
  255        1.738   4.373   0.000   6.111
  256        1.738   4.385   0.000   6.123
  257        1.738   4.377   0.000   6.115
--------------------------------------------------
tot        345.3491194.521 111.9521651.823
 


 magnetization (x)
 
# of ion       s       p       d       tot
------------------------------------------
    1       -0.000  -0.000   0.000  -0.000
    2       -0.000  -0.000  -0.000  -0.000
    3       -0.000  -0.000   0.000   0.000
    4       -0.000  -0.000  -0.002  -0.003
    5       -0.000  -0.000  -0.000  -0.000
    6       -0.000  -0.000   0.000   0.000
    7       -0.000  -0.000   0.000  -0.000
    8       -0.000  -0.000   0.000  -0.000
    9       -0.000  -0.000  -0.000  -0.000
   10       -0.000  -0.000   0.000   0.000
   11       -0.000  -0.000  -0.000  -0.000
   12       -0.000  -0.000  -0.000  -0.000
   13       -0.000   0.000   0.000   0.000
   14       -0.000  -0.000   0.000   0.000
   15       -0.000  -0.000  -0.000  -0.000
   16       -0.000  -0.000  -0.000  -0.000
   17       -0.000  -0.000   0.000   0.000
   18        0.005   0.007   0.886   0.898
   19        0.000   0.000   0.002   0.002
   20       -0.000  -0.000  -0.000  -0.000
   21       -0.000  -0.000   0.000   0.000
   22        0.000   0.000   0.001   0.001
   23        0.000   0.000   0.000   0.000
   24       -0.000  -0.000  -0.000  -0.000
   25       -0.000  -0.000  -0.000  -0.000
   26        0.000   0.000   0.015   0.015
   27       -0.000  -0.000   0.006   0.006
   28       -0.000  -0.000  -0.000  -0.000
   29       -0.000   0.000  -0.000  -0.000
   30        0.000   0.000   0.002   0.002
   31        0.000   0.000   0.000   0.000
   32        0.000  -0.000   0.000   0.000
   33        0.000   0.000  -0.000   0.000
   34       -0.000  -0.000   0.000   0.000
   35       -0.000   0.000   0.000   0.000
   36        0.000  -0.000  -0.000  -0.000
   37       -0.000  -0.000  -0.000  -0.000
   38       -0.000  -0.000  -0.000  -0.000
   39       -0.000  -0.000   0.000   0.000
   40       -0.000  -0.000   0.000   0.000
   41       -0.000  -0.000   0.000   0.000
   42       -0.000  -0.000   0.000   0.000
   43       -0.000  -0.000   0.000   0.000
   44       -0.000  -0.000  -0.000  -0.000
   45       -0.000  -0.000   0.000  -0.000
   46       -0.000  -0.000  -0.000  -0.000
   47       -0.000  -0.000  -0.000  -0.000
   48       -0.000  -0.000  -0.000  -0.000
   49       -0.000  -0.000   0.000   0.000
   50       -0.000  -0.000   0.005   0.005
   51        0.000   0.000   0.000   0.000
   52       -0.000  -0.000  -0.000  -0.000
   53        0.000   0.000   0.000   0.000
   54        0.000   0.001   0.052   0.053
   55        0.000   0.000   0.000   0.000
   56       -0.000  -0.000   0.000   0.000
   57       -0.000  -0.000  -0.000  -0.000
   58        0.000   0.000   0.003   0.003
   59        0.000   0.000   0.002   0.002
   60       -0.000  -0.000  -0.000  -0.000
   61       -0.000   0.000   0.000   0.000
   62        0.000   0.000   0.010   0.010
   63        0.000   0.000   0.001   0.001
   64        0.000  -0.000   0.000   0.000
   65       -0.000   0.000   0.000   0.000
   66       -0.000  -0.000   0.000  -0.000
   67       -0.000  -0.000   0.000  -0.000
   68       -0.000  -0.000   0.000  -0.000
   69       -0.000  -0.000   0.000  -0.000
   70       -0.000  -0.000   0.000  -0.000
   71        0.000  -0.000   0.000  -0.000
   72       -0.000  -0.000   0.000  -0.000
   73        0.000   0.000   0.000   0.000
   74       -0.000  -0.001   0.000  -0.001
   75       -0.000  -0.000   0.000  -0.000
   76        0.000  -0.000   0.000  -0.000
   77       -0.000   0.000   0.000   0.000
   78       -0.000  -0.000   0.000  -0.000
   79       -0.000  -0.000   0.000  -0.000
   80       -0.000  -0.000   0.000  -0.000
   81        0.000  -0.000   0.000  -0.000
   82       -0.000  -0.001   0.000  -0.001
   83       -0.000  -0.000   0.000  -0.000
   84       -0.000  -0.004   0.000  -0.005
   85        0.000  -0.000   0.000  -0.000
   86        0.000   0.000   0.000   0.000
   87       -0.000   0.000   0.000   0.000
   88        0.000  -0.000   0.000  -0.000
   89        0.000  -0.000   0.000  -0.000
   90       -0.000  -0.000   0.000  -0.000
   91       -0.000  -0.000   0.000  -0.000
   92       -0.000  -0.000   0.000  -0.000
   93       -0.000  -0.000   0.000  -0.000
   94       -0.000  -0.000   0.000  -0.000
   95        0.000   0.000   0.000   0.000
   96       -0.000  -0.000   0.000  -0.000
   97       -0.000   0.000   0.000   0.000
   98       -0.000  -0.001   0.000  -0.001
   99       -0.000  -0.000   0.000  -0.000
  100       -0.000  -0.000   0.000  -0.000
  101       -0.000  -0.000   0.000  -0.000
  102       -0.000  -0.000   0.000  -0.000
  103       -0.000  -0.000   0.000  -0.000
  104       -0.000  -0.000   0.000  -0.000
  105       -0.000  -0.000   0.000  -0.000
  106        0.000  -0.000   0.000  -0.000
  107       -0.000  -0.000   0.000  -0.000
  108        0.000  -0.000   0.000  -0.000
  109       -0.000  -0.000   0.000  -0.000
  110       -0.001  -0.024   0.000  -0.026
  111        0.000  -0.000   0.000  -0.000
  112       -0.000  -0.000   0.000  -0.000
  113       -0.000  -0.000   0.000  -0.000
  114       -0.000  -0.000   0.000  -0.000
  115       -0.000  -0.000   0.000  -0.000
  116        0.000  -0.000   0.000  -0.000
  117       -0.001  -0.014   0.000  -0.014
  118       -0.000  -0.000   0.000  -0.000
  119       -0.000  -0.000   0.000  -0.000
  120       -0.000  -0.000   0.000  -0.000
  121       -0.000  -0.000   0.000  -0.000
  122       -0.000  -0.001   0.000  -0.001
  123       -0.000  -0.000   0.000  -0.000
  124       -0.000  -0.000   0.000  -0.000
  125       -0.000  -0.000   0.000  -0.000
  126       -0.000  -0.000   0.000  -0.000
  127       -0.000  -0.000   0.000  -0.000
  128        0.000  -0.000   0.000  -0.000
  129       -0.000  -0.000   0.000  -0.000
  130       -0.000  -0.000   0.000  -0.000
  131        0.000  -0.000   0.000  -0.000
  132        0.000  -0.000   0.000  -0.000
  133       -0.000  -0.000   0.000  -0.000
  134        0.000   0.000   0.000   0.000
  135        0.000  -0.000   0.000  -0.000
  136       -0.000   0.000   0.000   0.000
  137       -0.000  -0.000   0.000  -0.000
  138       -0.000  -0.000   0.000  -0.000
  139        0.000  -0.000   0.000  -0.000
  140       -0.000  -0.000   0.000  -0.000
  141       -0.000  -0.001   0.000  -0.001
  142        0.000  -0.000   0.000  -0.000
  143       -0.000  -0.000   0.000  -0.000
  144        0.000  -0.000   0.000  -0.000
  145       -0.000   0.000   0.000   0.000
  146       -0.000   0.002   0.000   0.001
  147       -0.000  -0.000   0.000  -0.000
  148        0.000  -0.000   0.000  -0.000
  149       -0.000  -0.000   0.000  -0.000
  150       -0.000  -0.000   0.000  -0.000
  151       -0.000  -0.000   0.000  -0.000
  152        0.000   0.000   0.000   0.000
  153        0.000  -0.000   0.000  -0.000
  154       -0.000  -0.000   0.000  -0.000
  155       -0.000  -0.000   0.000  -0.000
  156        0.000  -0.000   0.000  -0.000
  157       -0.000  -0.000   0.000  -0.000
  158       -0.000  -0.000   0.000  -0.000
  159       -0.000   0.000   0.000   0.000
  160       -0.000  -0.000   0.000  -0.000
  161       -0.000  -0.000   0.000  -0.000
  162       -0.000  -0.000   0.000  -0.000
  163       -0.000   0.000   0.000   0.000
  164        0.000  -0.000   0.000   0.000
  165       -0.000  -0.000   0.000  -0.000
  166       -0.000   0.000   0.000   0.000
  167        0.000  -0.000   0.000  -0.000
  168        0.000  -0.000   0.000  -0.000
  169       -0.000  -0.000   0.000  -0.000
  170       -0.000   0.000   0.000   0.000
  171       -0.000  -0.000   0.000  -0.000
  172       -0.000  -0.000   0.000  -0.000
  173       -0.000  -0.000   0.000  -0.000
  174       -0.000  -0.000   0.000  -0.000
  175        0.000   0.000   0.000   0.000
  176       -0.000  -0.000   0.000  -0.000
  177       -0.000  -0.000   0.000  -0.000
  178       -0.000  -0.000   0.000  -0.000
  179       -0.000  -0.000   0.000  -0.000
  180        0.000   0.000   0.000   0.000
  181        0.000  -0.000   0.000  -0.000
  182        0.000   0.000   0.000   0.000
  183       -0.000   0.002   0.000   0.002
  184       -0.000  -0.000   0.000  -0.000
  185        0.000   0.000   0.000   0.000
  186        0.000   0.000   0.000   0.000
  187        0.000  -0.000   0.000  -0.000
  188        0.000  -0.000   0.000  -0.000
  189        0.000   0.000   0.000   0.000
  190        0.000  -0.000   0.000  -0.000
  191       -0.000  -0.000   0.000  -0.000
  192        0.000  -0.000   0.000  -0.000
  193        0.000   0.000   0.000   0.000
  194       -0.000  -0.000   0.000  -0.000
  195       -0.000  -0.000   0.000  -0.000
  196       -0.000  -0.000   0.000  -0.000
  197       -0.000  -0.000   0.000  -0.000
  198       -0.000  -0.000   0.000  -0.000
  199       -0.000   0.000   0.000   0.000
  200       -0.000  -0.000   0.000  -0.000
  201       -0.000  -0.000   0.000  -0.000
  202       -0.000  -0.000   0.000  -0.000
  203       -0.000  -0.000   0.000  -0.000
  204       -0.000   0.000   0.000   0.000
  205       -0.000  -0.000   0.000  -0.000
  206        0.000   0.000   0.000   0.000
  207       -0.000   0.000   0.000   0.000
  208        0.000   0.000   0.000   0.000
  209       -0.000  -0.001   0.000  -0.001
  210        0.000  -0.000   0.000  -0.000
  211       -0.000   0.000   0.000   0.000
  212       -0.000  -0.007   0.000  -0.007
  213       -0.000  -0.000   0.000  -0.000
  214       -0.000  -0.000   0.000  -0.000
  215       -0.000  -0.000   0.000  -0.000
  216       -0.000  -0.000   0.000  -0.000
  217       -0.000  -0.000   0.000  -0.000
  218       -0.000  -0.000   0.000  -0.000
  219       -0.000  -0.000   0.000  -0.000
  220       -0.000  -0.000   0.000  -0.000
  221       -0.000  -0.000   0.000  -0.000
  222       -0.000  -0.000   0.000  -0.000
  223       -0.000  -0.000   0.000  -0.000
  224       -0.000  -0.000   0.000  -0.000
  225       -0.000  -0.000   0.000  -0.000
  226       -0.000  -0.000   0.000  -0.000
  227       -0.000  -0.000   0.000  -0.000
  228       -0.000  -0.000   0.000  -0.000
  229       -0.000  -0.000   0.000  -0.000
  230       -0.000  -0.000   0.000  -0.000
  231       -0.000  -0.000   0.000  -0.000
  232       -0.000  -0.000   0.000  -0.000
  233       -0.000  -0.000   0.000  -0.000
  234       -0.000  -0.000   0.000  -0.000
  235       -0.000   0.000   0.000   0.000
  236       -0.000  -0.001   0.000  -0.001
  237       -0.000  -0.000   0.000  -0.000
  238       -0.000   0.000   0.000   0.000
  239       -0.000  -0.000   0.000  -0.000
  240       -0.000  -0.000   0.000  -0.000
  241       -0.000  -0.000   0.000  -0.000
  242       -0.000  -0.000   0.000  -0.000
  243       -0.000  -0.000   0.000  -0.000
  244       -0.000  -0.000   0.000  -0.000
  245       -0.000  -0.000   0.000  -0.000
  246       -0.000  -0.000   0.000  -0.000
  247       -0.000  -0.000   0.000  -0.000
  248       -0.000  -0.000   0.000  -0.000
  249       -0.000  -0.000   0.000  -0.000
  250       -0.000   0.000   0.000   0.000
  251       -0.000  -0.000   0.000  -0.000
  252       -0.000  -0.000   0.000  -0.000
  253       -0.000   0.000   0.000   0.000
  254       -0.000  -0.000   0.000  -0.000
  255       -0.000  -0.000   0.000  -0.000
  256       -0.000  -0.000   0.000  -0.000
  257       -0.000  -0.000   0.000  -0.000
--------------------------------------------------
tot          0.001  -0.049   0.984   0.936
 

 total amount of memory used by VASP MPI-rank0   291501. kBytes
=======================================================================

   base      :      30000. kBytes
   nonlr-proj:      49466. kBytes
   fftplans  :      27976. kBytes
   grid      :      34041. kBytes
   one-center:       1026. kBytes
   wavefun   :     148992. kBytes
 
  
  
 General timing and accounting informations for this job:
 ========================================================
  
                  Total CPU time used (sec):      835.176
                            User time (sec):      508.277
                          System time (sec):      326.899
                         Elapsed time (sec):      864.706
  
                   Maximum memory used (kb):      621476.
                   Average memory used (kb):           0.
  
                          Minor page faults:        79733
                          Major page faults:            3
                 Voluntary context switches:        16844
