       N       E                     dE             d eps       ncg     rms          rms(c)
DAV:   1    -0.211110800677E+03   -0.21111E+03   -0.57070E-03  2560   0.494E-01    0.855E-03
DAV:   2    -0.211110800081E+03    0.59646E-06   -0.66649E-06  3216   0.171E-02
   1 F= -.21111080E+03 E0= -.21111080E+03  d E =-.211111E+03  mag=     0.0000
