       N       E                     dE             d eps       ncg     rms          rms(c)
DAV:   1    -0.213019683794E+03   -0.21302E+03   -0.67544E-01  2560   0.545E+00    0.671E-02
DAV:   2    -0.213019758952E+03   -0.75158E-04   -0.24171E-05  2560   0.270E-02    0.379E-02
DAV:   3    -0.213019841067E+03   -0.82116E-04   -0.17582E-05  2880   0.254E-02    0.106E-02
DAV:   4    -0.213019844333E+03   -0.32656E-05   -0.24258E-06  1952   0.108E-02    0.230E-03
DAV:   5    -0.213019844513E+03   -0.18008E-06   -0.94291E-07  1344   0.562E-03
   1 F= -.21301984E+03 E0= -.21301984E+03  d E =-.213020E+03  mag=    -0.0000
