LTO                                     
           1
     7.757843    0.000000    0.002428
     0.000000    7.761423    0.000000
     0.002505    0.000000    7.669593
   Ti   O    F 
   8   8  16
Direct configuration=     1
   0.00030223  0.00131876  0.98012820
   0.00017551  0.98127203  0.50190964
   0.98735680  0.50082550  0.98494391
   0.98750640  0.50411847  0.50830325
   0.49969773  0.00131880  0.01987190
   0.49982454  0.98127208  0.49809041
   0.51264315  0.50082554  0.01505603
   0.51249366  0.50411850  0.49169669
   0.74999998  0.50168162  0.99999996
   0.75000002  0.49754621  0.49999993
   0.00065638  0.75475645  0.49566582
   0.49934370  0.75475647  0.50433422
   0.99940742  0.00132298  0.75306554
   0.00414345  0.49861128  0.75229311
   0.50059261  0.00132304  0.24693447
   0.49585653  0.49861136  0.24770684
   0.24999998  0.00020751  0.00000007
   0.25000002  0.00928896  0.50000004
   0.24999998  0.50173222  0.99999994
   0.25000002  0.49601921  0.49999996
   0.74999998  0.00014422  0.00000001
   0.75000003  0.01077510  0.50000006
   0.00326320  0.24659372  0.00946561
   0.00225757  0.24533401  0.49371338
   0.00326449  0.75544033  0.01102588
   0.49673672  0.24659376  0.99053438
   0.49774248  0.24533405  0.50628661
   0.49673544  0.75544039  0.98897414
   0.99924603  0.00390340  0.24408562
   0.00913960  0.49780526  0.24705395
   0.50075393  0.00390346  0.75591443
   0.49086042  0.49780532  0.75294599
