       N       E                     dE             d eps       ncg     rms          rms(c)
DAV:   1    -0.213547065883E+03   -0.21355E+03   -0.61265E-01  2560   0.519E+00    0.614E-02
DAV:   2    -0.213547129593E+03   -0.63711E-04   -0.23759E-05  2560   0.245E-02    0.345E-02
DAV:   3    -0.213547199823E+03   -0.70229E-04   -0.12659E-05  2720   0.253E-02    0.735E-03
DAV:   4    -0.213547201557E+03   -0.17343E-05   -0.14598E-06  1712   0.106E-02    0.187E-03
DAV:   5    -0.213547201754E+03   -0.19657E-06   -0.61201E-07  1424   0.517E-03
   1 F= -.21354720E+03 E0= -.21354720E+03  d E =-.213547E+03  mag=    -0.0000
