 vasp.5.4.4.18Apr17-6-g9f103f2a35 (build Apr 30 2017 20:10:35) complex          
  
 executed on             LinuxIFC date 2017.08.03  21:07:19
 running on   64 total cores
 distrk:  each k-point on   64 cores,    1 groups
 distr:  one band on NCORES_PER_BAND=   8 cores,    8 groups


--------------------------------------------------------------------------------------------------------


 INCAR:
 POTCAR:   PAW_PBE Ti_pv 07Sep2000                
 POTCAR:   PAW_PBE O 08Apr2002                    
 POTCAR:    PAW_PBE F 08Apr2002                   
 POTCAR:   PAW_PBE Ti_pv 07Sep2000                
   VRHFIN =Ti: d3 s1                                                            
   LEXCH  = PE                                                                  
   EATOM  =  1042.3781 eV,   76.6126 Ry                                         
                                                                                
   TITEL  = PAW_PBE Ti_pv 07Sep2000                                             
   LULTRA =        F    use ultrasoft PP ?                                      
   IUNSCR =        1    unscreen: 0-lin 1-nonlin 2-no                           
   RPACOR =    2.200    partial core radius                                     
   POMASS =   47.880; ZVAL   =   10.000    mass and valenz                      
   RCORE  =    2.500    outmost cutoff radius                                   
   RWIGS  =    2.500; RWIGS  =    1.323    wigner-seitz radius (au A)           
   ENMAX  =  222.338; ENMIN  =  166.753 eV                                      
   RCLOC  =    1.701    cutoff for local pot                                    
   LCOR   =        T    correct aug charges                                     
   LPAW   =        T    paw PP                                                  
   EAUG   =  482.848                                                            
   DEXC   =    -.008                                                            
   RMAX   =    3.092    core radius for proj-oper                               
   RAUG   =    1.300    factor for augmentation sphere                          
   RDEP   =    2.538    radius for radial grids                                 
   QCUT   =   -4.042; QGAM   =    8.085    optimization parameters              
                                                                                
   Description                                                                  
     l     E      TYP  RCUT    TYP  RCUT                                        
     1   .000     23  2.300                                                     
     1  -.100     23  2.300                                                     
     2   .000     23  2.500                                                     
     2   .000     23  2.500                                                     
     0   .000     23  2.500                                                     
     0  1.500     23  2.500                                                     
     3   .000      7   .000                                                     
  local pseudopotential read in
  partial core-charges read in
  atomic valenz-charges read in
  non local Contribution for L=           1  read in
    real space projection operators read in
  non local Contribution for L=           1  read in
    real space projection operators read in
  non local Contribution for L=           2  read in
    real space projection operators read in
  non local Contribution for L=           2  read in
    real space projection operators read in
  non local Contribution for L=           0  read in
    real space projection operators read in
  non local Contribution for L=           0  read in
    real space projection operators read in
    PAW grid and wavefunctions read in
 
   number of l-projection  operators is LMAX  =           6
   number of lm-projection operators is LMMAX =          18
 
 POTCAR:   PAW_PBE O 08Apr2002                    
   VRHFIN =O: s2p4                                                              
   LEXCH  = PE                                                                  
   EATOM  =   432.3788 eV,   31.7789 Ry                                         
                                                                                
   TITEL  = PAW_PBE O 08Apr2002                                                 
   LULTRA =        F    use ultrasoft PP ?                                      
   IUNSCR =        0    unscreen: 0-lin 1-nonlin 2-no                           
   RPACOR =     .000    partial core radius                                     
   POMASS =   16.000; ZVAL   =    6.000    mass and valenz                      
   RCORE  =    1.520    outmost cutoff radius                                   
   RWIGS  =    1.550; RWIGS  =     .820    wigner-seitz radius (au A)           
   ENMAX  =  400.000; ENMIN  =  300.000 eV                                      
   ICORE  =        2    local potential                                         
   LCOR   =        T    correct aug charges                                     
   LPAW   =        T    paw PP                                                  
   EAUG   =  605.392                                                            
   DEXC   =     .000                                                            
   RMAX   =    2.264    core radius for proj-oper                               
   RAUG   =    1.300    factor for augmentation sphere                          
   RDEP   =    1.550    radius for radial grids                                 
   QCUT   =   -5.520; QGAM   =   11.041    optimization parameters              
                                                                                
   Description                                                                  
     l     E      TYP  RCUT    TYP  RCUT                                        
     0   .000     23  1.200                                                     
     0  -.700     23  1.200                                                     
     1   .000     23  1.520                                                     
     1   .600     23  1.520                                                     
     2   .000      7  1.500                                                     
  local pseudopotential read in
  atomic valenz-charges read in
  non local Contribution for L=           0  read in
    real space projection operators read in
  non local Contribution for L=           0  read in
    real space projection operators read in
  non local Contribution for L=           1  read in
    real space projection operators read in
  non local Contribution for L=           1  read in
    real space projection operators read in
    PAW grid and wavefunctions read in
 
   number of l-projection  operators is LMAX  =           4
   number of lm-projection operators is LMMAX =           8
 
 POTCAR:    PAW_PBE F 08Apr2002                   
   VRHFIN =F: s2p5                                                              
   LEXCH  = PE                                                                  
   EATOM  =   659.6475 eV,   48.4827 Ry                                         
                                                                                
   TITEL  = PAW_PBE F 08Apr2002                                                 
   LULTRA =        F    use ultrasoft PP ?                                      
   IUNSCR =        1    unscreen: 0-lin 1-nonlin 2-no                           
   RPACOR =    1.200    partial core radius                                     
   POMASS =   18.998; ZVAL   =    7.000    mass and valenz                      
   RCORE  =    1.520    outmost cutoff radius                                   
   RWIGS  =    1.500; RWIGS  =    0.794    wigner-seitz radius (au A)           
   ENMAX  =  400.000; ENMIN  =  300.000 eV                                      
   ICORE  =        2    local potential                                         
   LCOR   =        T    correct aug charges                                     
   LPAW   =        T    paw PP                                                  
   EAUG   =  613.614                                                            
   RMAX   =    1.555    core radius for proj-oper                               
   RAUG   =    1.300    factor for augmentation sphere                          
   RDEP   =    1.539    radius for radial grids                                 
   RDEPT  =    1.299    core radius for aug-charge                              
                                                                                
   Atomic configuration                                                         
    4 entries                                                                   
     n  l   j            E        occ.                                          
     1  0  0.50      -663.3661   2.0000                                         
     2  0  0.50       -29.8995   2.0000                                         
     2  1  0.50       -11.1114   5.0000                                         
     3  2  1.50       -10.8847   0.0000                                         
   Description                                                                  
     l       E           TYP  RCUT    TYP  RCUT                                 
     0    -29.8995018     23  1.200                                             
     0     -9.5240782     23  1.200                                             
     1    -11.1113914     23  1.520                                             
     1      1.3605826     23  1.520                                             
     2    -10.8846608      7  1.500                                             
  local pseudopotential read in
  partial core-charges read in
  partial kinetic energy density read in
  atomic valenz-charges read in
  non local Contribution for L=           0  read in
    real space projection operators read in
  non local Contribution for L=           0  read in
    real space projection operators read in
  non local Contribution for L=           1  read in
    real space projection operators read in
  non local Contribution for L=           1  read in
    real space projection operators read in
    PAW grid and wavefunctions read in
 
   number of l-projection  operators is LMAX  =           4
   number of lm-projection operators is LMMAX =           8
 
 Optimization of the real space projectors (new method)

 maximal supplied QI-value         = 15.12
 optimisation between [QCUT,QGAM] = [ 13.45, 27.06] = [ 50.69,205.06] Ry 
 Optimized for a Real-space Cutoff    1.49 Angstroem

   l    n(q)    QCUT    max X(q) W(low)/X(q) W(high)/X(q)  e(spline) 
   1     12    13.455     4.841    0.13E-05    0.83E-06    0.56E-07
   1     12    13.455     5.701    0.32E-04    0.25E-04    0.17E-06
   2     11    13.455     4.569    0.64E-05    0.34E-05    0.50E-07
   2     11    13.455    32.276    0.49E-04    0.38E-04    0.46E-06
   0     12    13.455    30.046    0.17E-04    0.41E-05    0.51E-07
   0     12    13.455    45.433    0.12E-04    0.27E-04    0.38E-06
 Optimization of the real space projectors (new method)

 maximal supplied QI-value         = 24.76
 optimisation between [QCUT,QGAM] = [ 13.37, 26.98] = [ 50.04,203.89] Ry 
 Optimized for a Real-space Cutoff    1.17 Angstroem

   l    n(q)    QCUT    max X(q) W(low)/X(q) W(high)/X(q)  e(spline) 
   0      9    13.368     4.192    0.20E-04    0.58E-05    0.56E-07
   0      9    13.368     8.473    0.60E-04    0.52E-04    0.21E-06
   1      9    13.368     2.474    0.22E-04    0.17E-04    0.28E-07
   1      9    13.368     3.912    0.94E-04    0.97E-04    0.20E-06
 Optimization of the real space projectors (new method)

 maximal supplied QI-value         = 24.76
 optimisation between [QCUT,QGAM] = [ 13.37, 26.98] = [ 50.04,203.89] Ry 
 Optimized for a Real-space Cutoff    1.17 Angstroem

   l    n(q)    QCUT    max X(q) W(low)/X(q) W(high)/X(q)  e(spline) 
   0      9    13.368    14.049    0.39E-04    0.34E-04    0.16E-06
   0      9    13.368     8.945    0.54E-04    0.47E-04    0.20E-06
   1      9    13.368     7.086    0.99E-04    0.10E-03    0.23E-06
   1      9    13.368     6.747    0.86E-04    0.89E-04    0.21E-06

 ----------------------------------------------------------------------------- 
|                                                                             |
|  ADVICE TO THIS USER RUNNING 'VASP/VAMP'   (HEAR YOUR MASTER'S VOICE ...):  |
|                                                                             |
|      You enforced a specific xc-type in the INCAR file,                     |
|      a different type was found on the POTCAR file                          |
|          I HOPE YOU KNOW, WHAT YOU ARE  DOING                               |
|                                                                             |
 ----------------------------------------------------------------------------- 

 PAW_PBE Ti_pv 07Sep2000                :
 energy of atom  1       EATOM=-1042.3781
 kinetic energy error for atom=    0.0006 (will be added to EATOM!!)
 PAW_PBE O 08Apr2002                    :
 energy of atom  2       EATOM= -432.3788
 kinetic energy error for atom=    0.0091 (will be added to EATOM!!)
  PAW_PBE F 08Apr2002                   :
 energy of atom  3       EATOM= -659.6475
 kinetic energy error for atom=    0.0140 (will be added to EATOM!!)
 
 
 POSCAR: TiOF2 2x2x2 config 1564                 
  positions in direct lattice
  velocities in cartesian coordinates
 exchange correlation table for  LEXCH =       14
   RHO(1)=    0.500       N(1)  =     2000
   RHO(2)=  100.500       N(2)  =     4000

 VTST: version 3.1, (03/28/14)

 CHAIN: initializing optimizer
 
 OPT: Using VASP QUASI-newton optimizer
 CHAIN: Read ICHAIN            0
 
 POSCAR: TiOF2 2x2x2 config 1564                 
  positions in direct lattice
  velocities in cartesian coordinates
 


--------------------------------------------------------------------------------------------------------


 ion  position               nearest neighbor table
   1  0.000  0.989  0.987-  11 1.83  15 1.84  17 1.95  21 1.95  23 2.00  27 2.05
   2  0.000  0.988  0.513-  12 1.83  15 1.84  18 1.94  22 1.95  24 2.00  27 2.05
   3  0.987  0.511  0.000-  11 1.83   9 1.84  28 1.95  29 1.96  23 2.00  19 2.04
   4  0.987  0.512  0.500-  12 1.82  10 1.84  28 1.95  29 1.96  24 2.01  20 2.04
   5  0.500  0.989  0.013-  14 1.82  16 1.84  17 1.95  21 1.95  25 2.01  30 2.05
   6  0.500  0.012  0.487-  13 1.82  16 1.84  18 1.94  22 1.95  26 2.01  30 2.04
   7  0.513  0.512  0.999-  14 1.83   9 1.84  32 1.94  31 1.95  25 2.01  19 2.04
   8  0.513  0.487  0.500-  13 1.82  10 1.84  32 1.94  31 1.95  26 2.01  20 2.04
   9  0.750  0.497  1.000-   3 1.84   7 1.84
  10  0.750  0.500  0.500-   4 1.84   8 1.84
  11  0.002  0.750  0.003-   3 1.83   1 1.83
  12  0.001  0.749  0.498-   4 1.82   2 1.83
  13  0.499  0.250  0.502-   8 1.82   6 1.82
  14  0.498  0.751  0.998-   5 1.82   7 1.83
  15  0.999  0.003  0.750-   1 1.84   2 1.84
  16  0.501  0.999  0.250-   5 1.84   6 1.84
  17  0.250  0.010  1.000-   1 1.95   5 1.95
  18  0.250  1.000  0.500-   2 1.94   6 1.94
  19  0.250  0.494  1.000-   7 2.04   3 2.04
  20  0.250  0.500  0.500-   8 2.04   4 2.04
  21  0.750  0.012  1.000-   5 1.95   1 1.95
  22  0.750  0.999  0.500-   2 1.95   6 1.95
  23  0.004  0.250  0.004-   1 2.00   3 2.00
  24  0.004  0.249  0.496-   2 2.00   4 2.01
  25  0.496  0.251  0.995-   7 2.01   5 2.01
  26  0.496  0.750  0.505-   6 2.01   8 2.01
  27  0.999  0.006  0.250-   2 2.05   1 2.05
  28  0.008  0.490  0.250-   4 1.95   3 1.95
  29  0.008  0.488  0.750-   3 1.96   4 1.96
  30  0.501  1.000  0.750-   6 2.04   5 2.05
  31  0.492  0.501  0.250-   7 1.95   8 1.95
  32  0.491  0.500  0.750-   7 1.94   8 1.94
 

IMPORTANT INFORMATION: All symmetrisations will be switched off!
NOSYMM: (Re-)initialisation of all symmetry stuff for point group C_1.

 
 
 KPOINTS: Title                                   

Automatic generation of k-mesh.
Space group operators:
 irot       det(A)        alpha          n_x          n_y          n_z        tau_x        tau_y        tau_z
    1     1.000000     0.000001     1.000000     0.000000     0.000000     0.000000     0.000000     0.000000
 
 Subroutine IBZKPT returns following result:
 ===========================================
 
 Found      4 irreducible k-points:
 
 Following reciprocal coordinates:
            Coordinates               Weight
  0.250000  0.250000  0.250000      2.000000
 -0.250000  0.250000  0.250000      2.000000
  0.250000 -0.250000  0.250000      2.000000
 -0.250000 -0.250000  0.250000      2.000000
 
 Following cartesian coordinates:
            Coordinates               Weight
  0.032245  0.032687  0.032258      2.000000
 -0.032233  0.032674  0.032259      2.000000
  0.032233 -0.032659  0.032244      2.000000
 -0.032246 -0.032672  0.032244      2.000000
 


--------------------------------------------------------------------------------------------------------




 Dimension of arrays:
   k-points           NKPTS =      4   k-points in BZ     NKDIM =      4   number of bands    NBANDS=    160
   number of dos      NEDOS =   3001   number of ions     NIONS =     32
   non local maximal  LDIM  =      6   non local SUM 2l+1 LMDIM =     18
   total plane-waves  NPLWV = 343000
   max r-space proj   IRMAX =  10339   max aug-charges    IRDMAX= 231800
   dimension x,y,z NGX =    70 NGY =   70 NGZ =   70
   dimension x,y,z NGXF=   140 NGYF=  140 NGZF=  140
   support grid    NGXF=   280 NGYF=  280 NGZF=  280
   ions per type =               8   8  16
   NGX,Y,Z   is equivalent  to a cutoff of  15.01, 15.21, 15.01 a.u.
   NGXF,Y,Z  is equivalent  to a cutoff of  30.01, 30.42, 30.03 a.u.

 SYSTEM =  LTO                                     
 POSCAR =  TiOF2 2x2x2 config 1564                 

 Startparameter for this run:
   NWRITE =      2    write-flag & timer
   PREC   = accura    normal or accurate (medium, high low for compatibility)
   ISTART =      1    job   : 0-new  1-cont  2-samecut
   ICHARG =      0    charge: 1-file 2-atom 10-const
   ISPIN  =      2    spin polarized calculation?
   LNONCOLLINEAR =      F non collinear calculations
   LSORBIT =      F    spin-orbit coupling
   INIWAV =      1    electr: 0-lowe 1-rand  2-diag
   LASPH  =      T    aspherical Exc in radial PAW
   METAGGA=      F    non-selfconsistent MetaGGA calc.

 Electronic Relaxation 1
   ENCUT  =  700.0 eV  51.45 Ry    7.17 a.u.  16.73 16.51 16.72*2*pi/ulx,y,z
   ENINI  =  700.0     initial cutoff
   ENAUG  =  613.6 eV  augmentation charge cutoff
   NELM   =     60;   NELMIN=  2; NELMDL=  0     # of ELM steps 
   EDIFF  = 0.1E-05   stopping-criterion for ELM
   LREAL  =      T    real-space projection
   NLSPLINE    = F    spline interpolate recip. space projectors
   LCOMPAT=      F    compatible to vasp.4.4
   GGA_COMPAT  = T    GGA compatible to vasp.4.4-vasp.4.6
   LMAXPAW     = -100 max onsite density
   LMAXMIX     =    4 max onsite mixed and CHGCAR
   VOSKOWN=      0    Vosko Wilk Nusair interpolation
   ROPT   =   -0.00010  -0.00010  -0.00010
 Ionic relaxation
   EDIFFG = -.1E-01   stopping-criterion for IOM
   NSW    =    100    number of steps for IOM
   NBLOCK =      1;   KBLOCK =    100    inner block; outer block 
   IBRION =      1    ionic relax: 0-MD 1-quasi-New 2-CG
   NFREE  =      0    steps in history (QN), initial steepest desc. (CG)
   ISIF   =      3    stress and relaxation
   IWAVPR =     11    prediction:  0-non 1-charg 2-wave 3-comb
   ISYM   =      0    0-nonsym 1-usesym 2-fastsym
   LCORR  =      T    Harris-Foulkes like correction to forces

   POTIM  = 0.5000    time-step for ionic-motion
   TEIN   =    0.0    initial temperature
   TEBEG  =    0.0;   TEEND  =   0.0 temperature during run
   SMASS  =  -3.00    Nose mass-parameter (am)
   estimated Nose-frequenzy (Omega)   =  0.10E-29 period in steps =****** mass=  -0.137E-26a.u.
   SCALEE = 1.0000    scale energy and forces
   NPACO  =    256;   APACO  = 16.0  distance and # of slots for P.C.
   PSTRESS=    0.0 pullay stress

  Mass of Ions in am
   POMASS =  47.88 16.00 19.00
  Ionic Valenz
   ZVAL   =  10.00  6.00  7.00
  Atomic Wigner-Seitz radii
   RWIGS  =  -1.00 -1.00 -1.00
  virtual crystal weights 
   VCA    =   1.00  1.00  1.00
   NELECT =     240.0000    total number of electrons
   NUPDOWN=      -1.0000    fix difference up-down

 DOS related values:
   EMIN   =  10.00;   EMAX   =-10.00  energy-range for DOS
   EFERMI =   0.00
   ISMEAR =     0;   SIGMA  =   0.01  broadening in eV -4-tet -1-fermi 0-gaus

 Electronic relaxation 2 (details)
   IALGO  =     38    algorithm
   LDIAG  =      T    sub-space diagonalisation (order eigenvalues)
   LSUBROT=      F    optimize rotation matrix (better conditioning)
   TURBO    =      0    0=normal 1=particle mesh
   IRESTART =      0    0=no restart 2=restart with 2 vectors
   NREBOOT  =      0    no. of reboots
   NMIN     =      0    reboot dimension
   EREF     =   0.00    reference energy to select bands
   IMIX   =      4    mixing-type and parameters
     AMIX     =   0.40;   BMIX     =  1.00
     AMIX_MAG =   1.60;   BMIX_MAG =  1.00
     AMIN     =   0.10
     WC   =   100.;   INIMIX=   1;  MIXPRE=   1;  MAXMIX= -45

 Intra band minimization:
   WEIMIN = 0.0010     energy-eigenvalue tresh-hold
   EBREAK =  0.16E-08  absolut break condition
   DEPER  =   0.30     relativ break condition  

   TIME   =   0.40     timestep for ELM

  volume/ion in A,a.u.               =      14.37        96.99
  Fermi-wavevector in a.u.,A,eV,Ry     =   1.317992  2.490643 23.634710  1.737102
  Thomas-Fermi vector in A             =   2.447993
 
 Write flags
   LWAVE        =      T    write WAVECAR
   LDOWNSAMPLE  =      F    k-point downsampling of WAVECAR
   LCHARG       =      T    write CHGCAR
   LVTOT        =      F    write LOCPOT, total local potential
   LVHAR        =      F    write LOCPOT, Hartree potential only
   LELF         =      F    write electronic localiz. function (ELF)
   LORBIT       =     11    0 simple, 1 ext, 2 COOP (PROOUT), +10 PAW based schemes


 Dipole corrections
   LMONO  =      F    monopole corrections only (constant potential shift)
   LDIPOL =      F    correct potential (dipole corrections)
   IDIPOL =      0    1-x, 2-y, 3-z, 4-all directions 
   EPSILON=  1.0000000 bulk dielectric constant

 LDA+U is selected, type is set to LDAUTYPE =  2
   angular momentum for each species LDAUL =     2   -1   -1
   U (eV)           for each species LDAUU =   4.2  0.0  0.0
   J (eV)           for each species LDAUJ =   0.0  0.0  0.0
 Exchange correlation treatment:
   GGA     =    PS    GGA type
   LEXCH   =    14    internal setting for exchange type
   VOSKOWN=      0    Vosko Wilk Nusair interpolation
   LHFCALC =     F    Hartree Fock is set to
   LHFONE  =     F    Hartree Fock one center treatment
   AEXX    =    0.0000 exact exchange contribution

 Linear response parameters
   LEPSILON=     F    determine dielectric tensor
   LRPA    =     F    only Hartree local field effects (RPA)
   LNABLA  =     F    use nabla operator in PAW spheres
   LVEL    =     F    velocity operator in full k-point grid
   LINTERFAST=   F  fast interpolation
   KINTER  =     0    interpolate to denser k-point grid
   CSHIFT  =0.1000    complex shift for real part using Kramers Kronig
   OMEGAMAX=  -1.0    maximum frequency
   DEG_THRESHOLD= 0.2000000E-02 threshold for treating states as degnerate
   RTIME   =   -0.100 relaxation time in fs
  (WPLASMAI=    0.000 imaginary part of plasma frequency in eV, 0.658/RTIME)
   DFIELD  = 0.0000000 0.0000000 0.0000000 field for delta impulse in time
 
 Orbital magnetization related:
   ORBITALMAG=     F  switch on orbital magnetization
   LCHIMAG   =     F  perturbation theory with respect to B field
   DQ        =  0.001000  dq finite difference perturbation B field
   LLRAUG    =     F  two centre corrections for induced B field



--------------------------------------------------------------------------------------------------------


 quasi-Newton-method for relaxation of ions
 charge density and potential will be updated during run
 spin polarized calculation
 Variant of blocked Davidson
 Davidson routine will perform the subspace rotation
 perform sub-space diagonalisation
    after iterative eigenvector-optimisation
 modified Broyden-mixing scheme, WC =      100.0
 initial mixing is a Kerker type mixing with AMIX =  0.4000 and BMIX =      1.0000
 Hartree-type preconditioning will be used
 using additional bands           40
 real space projection scheme for non local part
 use partial core corrections
 calculate Harris-corrections to forces 
   (improved forces if not selfconsistent)
 use gradient corrections 
 use of overlap-Matrix (Vanderbilt PP)
 Gauss-broadening in eV      SIGMA  =   0.01


--------------------------------------------------------------------------------------------------------


  energy-cutoff  :      700.00
  volume of cell :      459.94
      direct lattice vectors                 reciprocal lattice vectors
     7.754503493 -0.001496216  0.000095443     0.128957327  0.000026350 -0.000001586
    -0.001563504  7.651576258 -0.001789810     0.000025216  0.130692038  0.000029475
     0.000095701 -0.001748228  7.751626371    -0.000001582  0.000030176  0.129005193

  length of vectors
     7.754503638  7.651576627  7.751626569     0.128957329  0.130692043  0.129005196


 
 old parameters found on file WAVECAR:
  energy-cutoff  :      700.00
  volume of cell :      438.28
      direct lattice vectors                 reciprocal lattice vectors
     7.596000000  0.000000000  0.000000000     0.131648236  0.000000000  0.000000000
     0.000000000  7.596000000  0.000000000     0.000000000  0.131648236  0.000000000
     0.000000000  0.000000000  7.596000000     0.000000000  0.000000000  0.131648236

  length of vectors

 
 k-points in units of 2pi/SCALE and weight: Title                                   
   0.03224524  0.03268714  0.03225827       0.250
  -0.03223342  0.03267397  0.03225906       0.250
   0.03223263 -0.03265888  0.03224353       0.250
  -0.03224603 -0.03267205  0.03224433       0.250
 
 k-points in reciprocal lattice and weights: Title                                   
   0.25000000  0.25000000  0.25000000       0.250
  -0.25000000  0.25000000  0.25000000       0.250
   0.25000000 -0.25000000  0.25000000       0.250
  -0.25000000 -0.25000000  0.25000000       0.250
 
 position of ions in fractional coordinates (direct lattice) 
   0.00031685  0.98880493  0.98655554
   0.00039330  0.98766906  0.51343913
   0.98727011  0.51125213  0.00043053
   0.98730517  0.51156896  0.49960878
   0.49974675  0.98856422  0.01344127
   0.49966985  0.01246759  0.48662475
   0.51270276  0.51242108  0.99949470
   0.51265708  0.48736547  0.50044081
   0.75001626  0.49712777  0.99993027
   0.74999050  0.50041635  0.50009204
   0.00168884  0.74998921  0.00252338
   0.00148780  0.74938064  0.49753677
   0.49879518  0.24998382  0.50177951
   0.49849170  0.75063238  0.99785096
   0.99936810  0.00250455  0.75005463
   0.50059823  0.99947221  0.24997769
   0.25004658  0.00996927  0.99992082
   0.25004319  0.99954452  0.50011878
   0.25005794  0.49447114  0.99996540
   0.25008398  0.50042492  0.50005782
   0.75001826  0.01217150  0.99995274
   0.75001295  0.99937443  0.50007879
   0.00369980  0.24989886  0.00429341
   0.00395911  0.24905986  0.49582061
   0.49633592  0.25072370  0.99531577
   0.49602910  0.75008945  0.50473804
   0.99926873  0.00558134  0.25013540
   0.00828608  0.49002910  0.25002432
   0.00795665  0.48831932  0.75000330
   0.50076539  0.99960872  0.74984835
   0.49166652  0.50065575  0.24999331
   0.49127132  0.50045777  0.74995238
 
 position of ions in cartesian coordinates  (Angst):
   0.00100545  7.56419109  7.64564016
   0.00155478  7.55632694  3.97822058
   7.65499019  3.91040675  0.00251650
   7.65530933  3.91195825  3.87195918
   3.87374360  7.56330330  0.10247010
   3.87471865  0.09379837  3.77215865
   3.97504985  3.91831450  7.74684129
   3.97468705  3.72747210  3.87840683
   5.81532210  3.80094072  7.75026770
   5.81506937  3.82697743  3.87570256
   0.01192371  5.73859267  0.01821813
   0.01041314  5.73307105  3.85537806
   3.86756610  1.91114676  3.88920744
   3.86447749  5.74103056  7.73367189
   7.74967131  0.01635721  5.81423411
   3.88035197  7.64635182  1.93599260
   1.93906721  0.07415841  7.75101862
   1.93744589  7.64684268  3.87496883
   1.93839777  3.78136136  7.75049705
   1.93854252  3.82779102  3.87538959
   5.81609588  0.09026085  7.75130980
   5.81446340  7.64479323  3.87470686
   0.02829980  1.91210713  0.03283398
   0.03035895  1.90482780  3.84297069
   3.84854188  1.91594886  7.71491463
   3.84533495  5.73774206  3.91124551
   7.74884803  0.04077360  1.93904154
   0.06351221  3.74904551  1.93721881
   0.06100819  3.73508944  5.81287212
   3.88169582  7.64652222  5.81080293
   3.81187092  3.82963293  1.93700556
   3.80885444  3.82724462  5.81250182
 


--------------------------------------------------------------------------------------------------------


 k-point  1 :   0.2500 0.2500 0.2500  plane waves:   19335
 k-point  2 :  -0.2500 0.2500 0.2500  plane waves:   19332
 k-point  3 :   0.2500-0.2500 0.2500  plane waves:   19334
 k-point  4 :  -0.2500-0.2500 0.2500  plane waves:   19330

 maximum and minimum number of plane-waves per node :      2443     2392

 maximum number of plane-waves:     19335
 maximum index in each direction: 
   IXMAX=   16   IYMAX=   16   IZMAX=   16
   IXMIN=  -16   IYMIN=  -16   IZMIN=  -16


 real space projection operators:
  total allocation   :      18605.67 KBytes
  max/ min on nodes  :       2475.39       1937.38


 parallel 3D FFT for wavefunctions:
    minimum data exchange during FFTs selected (reduces bandwidth)
 parallel 3D FFT for charge:
    minimum data exchange during FFTs selected (reduces bandwidth)


 total amount of memory used by VASP MPI-rank0    62257. kBytes
=======================================================================

   base      :      30000. kBytes
   nonlr-proj:       8621. kBytes
   fftplans  :       8422. kBytes
   grid      :       8783. kBytes
   one-center:        124. kBytes
   wavefun   :       6307. kBytes
 
     INWAV:  cpu time    3.7644: real time    4.0026
 Broyden mixing: mesh for mixing (old mesh)
   NGX = 33   NGY = 33   NGZ = 33
  (NGX  =140   NGY  =140   NGZ  =140)
  gives a total of  35937 points

 charge density for first step will be calculated from the start-wavefunctions


--------------------------------------------------------------------------------------------------------


 Maximum index for non-local projection operator         1374
 Maximum index for augmentation-charges         7611 (set IRDMAX)


--------------------------------------------------------------------------------------------------------


 initial charge from wavefunction
 First call to EWALD:  gamma=   0.230
 Maximum number of real-space cells 3x 3x 3
 Maximum number of reciprocal cells 3x 3x 3

    FEWALD:  cpu time    0.0030: real time    0.0033


--------------------------------------- Iteration      1(   1)  ---------------------------------------


    POTLOK:  cpu time    0.1480: real time    0.1867
    SETDIJ:  cpu time    0.8349: real time    0.8400
     EDDAV:  cpu time    3.4895: real time    3.4959
       DOS:  cpu time    0.0000: real time    0.0008
    CHARGE:  cpu time    0.3679: real time    0.3766
    MIXING:  cpu time    0.0020: real time    0.0020
    --------------------------------------------
      LOOP:  cpu time    4.8423: real time    4.9021

 eigenvalue-minimisations  :  2560
 total energy-change (2. order) :-0.2135471E+03  (-0.6126533E-01)
 number of electron     240.0000002 magnetization       0.0000000
 augmentation part       61.9519771 magnetization      -0.0000000

 Broyden mixing:
  rms(total) = 0.61409E-02    rms(broyden)= 0.57818E-02
  rms(prec ) = 0.61008E-02
  weight for this iteration     100.00

 Free energy of the ion-electron system (eV)
  ---------------------------------------------------
  alpha Z        PSCENC =       761.33606920
  Ewald energy   TEWEN  =    -12826.96836803
  -Hartree energ DENC   =     -8217.96175558
  -exchange      EXHF   =         0.00000000
  -V(xc)+E(xc)   XCENC  =      1119.89083919
  PAW double counting   =     18024.43984585   -18148.18899361
  entropy T*S    EENTRO =        -0.00000000
  eigenvalues    EBANDS =     -3228.44791917
  atomic energy  EATOM  =     22302.35321627
  Solvation  Ediel_sol  =         0.00000000
  ---------------------------------------------------
  free energy    TOTEN  =      -213.54706588 eV

  energy without entropy =     -213.54706588  energy(sigma->0) =     -213.54706588


--------------------------------------------------------------------------------------------------------




--------------------------------------- Iteration      1(   2)  ---------------------------------------


    POTLOK:  cpu time    0.1360: real time    0.1558
    SETDIJ:  cpu time    0.8249: real time    0.8377
     EDDAV:  cpu time    3.5715: real time    3.5834
       DOS:  cpu time    0.0010: real time    0.0009
    CHARGE:  cpu time    0.3380: real time    0.3839
    MIXING:  cpu time    0.0020: real time    0.0021
    --------------------------------------------
      LOOP:  cpu time    4.8733: real time    4.9637

 eigenvalue-minimisations  :  2560
 total energy-change (2. order) :-0.6371053E-04  (-0.2375938E-05)
 number of electron     240.0000002 magnetization       0.0000000
 augmentation part       61.9524684 magnetization      -0.0000000

 Broyden mixing:
  rms(total) = 0.34479E-02    rms(broyden)= 0.34233E-02
  rms(prec ) = 0.36117E-02
  weight for this iteration     100.00

 eigenvalues of (default mixing * dielectric matrix)
  average eigenvalue GAMMA=   2.2473
  2.2473

 Free energy of the ion-electron system (eV)
  ---------------------------------------------------
  alpha Z        PSCENC =       761.33606920
  Ewald energy   TEWEN  =    -12826.96836803
  -Hartree energ DENC   =     -8217.90248823
  -exchange      EXHF   =         0.00000000
  -V(xc)+E(xc)   XCENC  =      1119.88705536
  PAW double counting   =     18025.04176296   -18148.77753009
  entropy T*S    EENTRO =        -0.00000000
  eigenvalues    EBANDS =     -3228.51684705
  atomic energy  EATOM  =     22302.35321627
  Solvation  Ediel_sol  =         0.00000000
  ---------------------------------------------------
  free energy    TOTEN  =      -213.54712959 eV

  energy without entropy =     -213.54712959  energy(sigma->0) =     -213.54712959


--------------------------------------------------------------------------------------------------------




--------------------------------------- Iteration      1(   3)  ---------------------------------------


    POTLOK:  cpu time    0.1420: real time    0.1580
    SETDIJ:  cpu time    0.8299: real time    0.8363
     EDDAV:  cpu time    3.6085: real time    3.6212
       DOS:  cpu time    0.0010: real time    0.0008
    CHARGE:  cpu time    0.3659: real time    0.3757
    MIXING:  cpu time    0.0020: real time    0.0023
    --------------------------------------------
      LOOP:  cpu time    4.9492: real time    4.9942

 eigenvalue-minimisations  :  2720
 total energy-change (2. order) :-0.7022935E-04  (-0.1265901E-05)
 number of electron     240.0000002 magnetization       0.0000000
 augmentation part       61.9532317 magnetization       0.0000000

 Broyden mixing:
  rms(total) = 0.73537E-03    rms(broyden)= 0.73032E-03
  rms(prec ) = 0.97435E-03
  weight for this iteration     100.00

 eigenvalues of (default mixing * dielectric matrix)
  average eigenvalue GAMMA=   1.6290
  0.7987  2.4593

 Free energy of the ion-electron system (eV)
  ---------------------------------------------------
  alpha Z        PSCENC =       761.33606920
  Ewald energy   TEWEN  =    -12826.96836803
  -Hartree energ DENC   =     -8217.93164657
  -exchange      EXHF   =         0.00000000
  -V(xc)+E(xc)   XCENC  =      1119.88985609
  PAW double counting   =     18025.84553575   -18149.57100268
  entropy T*S    EENTRO =        -0.00000000
  eigenvalues    EBANDS =     -3228.50085986
  atomic energy  EATOM  =     22302.35321627
  Solvation  Ediel_sol  =         0.00000000
  ---------------------------------------------------
  free energy    TOTEN  =      -213.54719982 eV

  energy without entropy =     -213.54719982  energy(sigma->0) =     -213.54719982


--------------------------------------------------------------------------------------------------------




--------------------------------------- Iteration      1(   4)  ---------------------------------------


    POTLOK:  cpu time    0.2400: real time    0.2509
    SETDIJ:  cpu time    0.8389: real time    0.8388
     EDDAV:  cpu time    2.7046: real time    2.7041
       DOS:  cpu time    0.0010: real time    0.0009
    CHARGE:  cpu time    0.3809: real time    0.3792
    MIXING:  cpu time    0.0020: real time    0.0024
    --------------------------------------------
      LOOP:  cpu time    4.1674: real time    4.1762

 eigenvalue-minimisations  :  1712
 total energy-change (2. order) :-0.1734341E-05  (-0.1459811E-06)
 number of electron     240.0000002 magnetization      -0.0000000
 augmentation part       61.9526389 magnetization       0.0000000

 Broyden mixing:
  rms(total) = 0.18713E-03    rms(broyden)= 0.18594E-03
  rms(prec ) = 0.25400E-03
  weight for this iteration     100.00

 eigenvalues of (default mixing * dielectric matrix)
  average eigenvalue GAMMA=   1.3903
  2.5028  1.0592  0.6090

 Free energy of the ion-electron system (eV)
  ---------------------------------------------------
  alpha Z        PSCENC =       761.33606920
  Ewald energy   TEWEN  =    -12826.96836803
  -Hartree energ DENC   =     -8217.94853498
  -exchange      EXHF   =         0.00000000
  -V(xc)+E(xc)   XCENC  =      1119.89019289
  PAW double counting   =     18025.94067598   -18149.66317790
  entropy T*S    EENTRO =        -0.00000000
  eigenvalues    EBANDS =     -3228.48727498
  atomic energy  EATOM  =     22302.35321627
  Solvation  Ediel_sol  =         0.00000000
  ---------------------------------------------------
  free energy    TOTEN  =      -213.54720156 eV

  energy without entropy =     -213.54720156  energy(sigma->0) =     -213.54720156


--------------------------------------------------------------------------------------------------------




--------------------------------------- Iteration      1(   5)  ---------------------------------------


    POTLOK:  cpu time    0.2700: real time    0.2799
    SETDIJ:  cpu time    0.8419: real time    0.8395
     EDDAV:  cpu time    2.4276: real time    2.4262
       DOS:  cpu time    0.0010: real time    0.0009
    --------------------------------------------
      LOOP:  cpu time    3.5405: real time    3.5464

 eigenvalue-minimisations  :  1424
 total energy-change (2. order) :-0.1965673E-06  (-0.6120106E-07)
 number of electron     240.0000002 magnetization      -0.0000000
 augmentation part       61.9526389 magnetization       0.0000000

 Free energy of the ion-electron system (eV)
  ---------------------------------------------------
  alpha Z        PSCENC =       761.33606920
  Ewald energy   TEWEN  =    -12826.96836803
  -Hartree energ DENC   =     -8217.95233217
  -exchange      EXHF   =         0.00000000
  -V(xc)+E(xc)   XCENC  =      1119.89051118
  PAW double counting   =     18025.91458705   -18149.63720362
  entropy T*S    EENTRO =        -0.00000000
  eigenvalues    EBANDS =     -3228.48368162
  atomic energy  EATOM  =     22302.35321627
  Solvation  Ediel_sol  =         0.00000000
  ---------------------------------------------------
  free energy    TOTEN  =      -213.54720175 eV

  energy without entropy =     -213.54720175  energy(sigma->0) =     -213.54720175


--------------------------------------------------------------------------------------------------------




 average (electrostatic) potential at core
  the test charge radii are     1.0397  0.7215  0.7167
  (the norm of the test charge is              1.0000)
       1 -58.9040       2 -58.8916       3 -58.9177       4 -58.8933       5 -58.8789
       6 -58.8690       7 -58.9052       8 -58.8802       9 -74.0712      10 -74.0681
      11 -74.1301      12 -74.1327      13 -74.1361      14 -74.1321      15 -74.0798
      16 -74.0767      17 -79.4326      18 -79.4708      19 -78.4243      20 -78.4424
      21 -79.4236      22 -79.4599      23 -78.6677      24 -78.6822      25 -78.6812
      26 -78.6926      27 -78.4517      28 -79.4108      29 -79.4047      30 -78.4695
      31 -79.4363      32 -79.4436
 
 
 
 E-fermi :  -0.9984     XC(G=0):  -9.0020     alpha+bet : -7.6827


 spin component 1

 k-point     1 :       0.2500    0.2500    0.2500
  band No.  band energies     occupation 
      1     -34.9641      1.00000
      2     -34.9602      1.00000
      3     -34.9573      1.00000
      4     -34.9550      1.00000
      5     -34.8816      1.00000
      6     -34.8760      1.00000
      7     -34.8734      1.00000
      8     -34.8703      1.00000
      9     -34.7886      1.00000
     10     -34.7769      1.00000
     11     -34.7749      1.00000
     12     -34.7651      1.00000
     13     -34.7635      1.00000
     14     -34.7592      1.00000
     15     -34.7463      1.00000
     16     -34.7405      1.00000
     17     -34.7182      1.00000
     18     -34.7092      1.00000
     19     -34.7058      1.00000
     20     -34.6985      1.00000
     21     -34.6929      1.00000
     22     -34.6882      1.00000
     23     -34.6793      1.00000
     24     -34.6701      1.00000
     25     -23.3004      1.00000
     26     -23.2728      1.00000
     27     -23.2526      1.00000
     28     -23.2286      1.00000
     29     -22.9265      1.00000
     30     -22.9081      1.00000
     31     -22.8973      1.00000
     32     -22.8812      1.00000
     33     -22.3865      1.00000
     34     -22.3693      1.00000
     35     -22.3527      1.00000
     36     -22.3458      1.00000
     37     -22.1058      1.00000
     38     -22.0871      1.00000
     39     -22.0663      1.00000
     40     -22.0488      1.00000
     41     -16.7427      1.00000
     42     -16.7353      1.00000
     43     -16.6631      1.00000
     44     -16.6470      1.00000
     45     -16.5330      1.00000
     46     -16.5231      1.00000
     47     -16.4574      1.00000
     48     -16.4470      1.00000
     49      -6.8220      1.00000
     50      -6.7764      1.00000
     51      -6.7584      1.00000
     52      -6.7167      1.00000
     53      -5.8823      1.00000
     54      -5.8651      1.00000
     55      -5.8240      1.00000
     56      -5.8090      1.00000
     57      -5.7631      1.00000
     58      -5.7398      1.00000
     59      -5.6792      1.00000
     60      -5.6446      1.00000
     61      -5.5724      1.00000
     62      -5.5382      1.00000
     63      -5.5102      1.00000
     64      -5.4760      1.00000
     65      -5.2138      1.00000
     66      -5.1759      1.00000
     67      -5.1327      1.00000
     68      -5.1138      1.00000
     69      -5.0665      1.00000
     70      -5.0392      1.00000
     71      -4.6918      1.00000
     72      -4.6390      1.00000
     73      -4.5987      1.00000
     74      -4.5657      1.00000
     75      -4.5345      1.00000
     76      -4.5265      1.00000
     77      -4.4860      1.00000
     78      -4.4596      1.00000
     79      -4.4357      1.00000
     80      -4.3672      1.00000
     81      -4.2379      1.00000
     82      -4.1622      1.00000
     83      -4.0917      1.00000
     84      -3.9878      1.00000
     85      -3.7854      1.00000
     86      -3.7461      1.00000
     87      -3.6566      1.00000
     88      -3.5963      1.00000
     89      -3.5771      1.00000
     90      -3.5159      1.00000
     91      -3.4632      1.00000
     92      -3.4309      1.00000
     93      -3.4037      1.00000
     94      -3.3489      1.00000
     95      -3.2805      1.00000
     96      -3.1941      1.00000
     97      -3.1692      1.00000
     98      -3.1184      1.00000
     99      -3.0847      1.00000
    100      -3.0155      1.00000
    101      -2.9841      1.00000
    102      -2.9632      1.00000
    103      -2.9098      1.00000
    104      -2.8773      1.00000
    105      -2.5708      1.00000
    106      -2.5545      1.00000
    107      -2.5236      1.00000
    108      -2.5045      1.00000
    109      -2.0921      1.00000
    110      -2.0807      1.00000
    111      -1.9792      1.00000
    112      -1.9434      1.00000
    113      -1.8464      1.00000
    114      -1.8385      1.00000
    115      -1.7761      1.00000
    116      -1.6779      1.00000
    117      -1.1970      1.00000
    118      -1.1694      1.00000
    119      -1.1508      1.00000
    120      -1.1307      1.00000
    121       2.1609      0.00000
    122       2.1898      0.00000
    123       2.2021      0.00000
    124       2.2305      0.00000
    125       2.2613      0.00000
    126       2.2768      0.00000
    127       2.6795      0.00000
    128       2.7041      0.00000
    129       2.8184      0.00000
    130       2.8407      0.00000
    131       2.8807      0.00000
    132       2.8977      0.00000
    133       3.1811      0.00000
    134       3.2628      0.00000
    135       3.3272      0.00000
    136       3.3661      0.00000
    137       3.4064      0.00000
    138       3.4639      0.00000
    139       3.5469      0.00000
    140       3.5880      0.00000
    141       3.6848      0.00000
    142       3.7039      0.00000
    143       3.7807      0.00000
    144       3.8104      0.00000
    145       3.8546      0.00000
    146       3.9060      0.00000
    147       3.9341      0.00000
    148       3.9825      0.00000
    149       4.0511      0.00000
    150       4.2271      0.00000
    151       4.3667      0.00000
    152       4.5429      0.00000
    153       4.9519      0.00000
    154       5.0479      0.00000
    155       5.4492      0.00000
    156       5.7199      0.00000
    157       5.9494      0.00000
    158       6.3030      0.00000
    159       6.3720      0.00000
    160       6.5121      0.00000

 k-point     2 :      -0.2500    0.2500    0.2500
  band No.  band energies     occupation 
      1     -34.9641      1.00000
      2     -34.9602      1.00000
      3     -34.9573      1.00000
      4     -34.9550      1.00000
      5     -34.8816      1.00000
      6     -34.8760      1.00000
      7     -34.8734      1.00000
      8     -34.8703      1.00000
      9     -34.7886      1.00000
     10     -34.7769      1.00000
     11     -34.7749      1.00000
     12     -34.7650      1.00000
     13     -34.7635      1.00000
     14     -34.7593      1.00000
     15     -34.7464      1.00000
     16     -34.7405      1.00000
     17     -34.7182      1.00000
     18     -34.7094      1.00000
     19     -34.7057      1.00000
     20     -34.6984      1.00000
     21     -34.6929      1.00000
     22     -34.6882      1.00000
     23     -34.6793      1.00000
     24     -34.6701      1.00000
     25     -23.3008      1.00000
     26     -23.2722      1.00000
     27     -23.2525      1.00000
     28     -23.2288      1.00000
     29     -22.9264      1.00000
     30     -22.9083      1.00000
     31     -22.8973      1.00000
     32     -22.8812      1.00000
     33     -22.3849      1.00000
     34     -22.3681      1.00000
     35     -22.3555      1.00000
     36     -22.3462      1.00000
     37     -22.1052      1.00000
     38     -22.0873      1.00000
     39     -22.0660      1.00000
     40     -22.0492      1.00000
     41     -16.7403      1.00000
     42     -16.7364      1.00000
     43     -16.6610      1.00000
     44     -16.6515      1.00000
     45     -16.5341      1.00000
     46     -16.5210      1.00000
     47     -16.4587      1.00000
     48     -16.4456      1.00000
     49      -6.8223      1.00000
     50      -6.7764      1.00000
     51      -6.7580      1.00000
     52      -6.7169      1.00000
     53      -5.8884      1.00000
     54      -5.8595      1.00000
     55      -5.8338      1.00000
     56      -5.8099      1.00000
     57      -5.7639      1.00000
     58      -5.7332      1.00000
     59      -5.6740      1.00000
     60      -5.6448      1.00000
     61      -5.5744      1.00000
     62      -5.5385      1.00000
     63      -5.5145      1.00000
     64      -5.4730      1.00000
     65      -5.2149      1.00000
     66      -5.1660      1.00000
     67      -5.1181      1.00000
     68      -5.1048      1.00000
     69      -5.0721      1.00000
     70      -5.0370      1.00000
     71      -4.6979      1.00000
     72      -4.6412      1.00000
     73      -4.6125      1.00000
     74      -4.5792      1.00000
     75      -4.5407      1.00000
     76      -4.5274      1.00000
     77      -4.4891      1.00000
     78      -4.4629      1.00000
     79      -4.4096      1.00000
     80      -4.3779      1.00000
     81      -4.2292      1.00000
     82      -4.1276      1.00000
     83      -4.0895      1.00000
     84      -3.9940      1.00000
     85      -3.8041      1.00000
     86      -3.7793      1.00000
     87      -3.7079      1.00000
     88      -3.6034      1.00000
     89      -3.5961      1.00000
     90      -3.5011      1.00000
     91      -3.4900      1.00000
     92      -3.4355      1.00000
     93      -3.4038      1.00000
     94      -3.2955      1.00000
     95      -3.2708      1.00000
     96      -3.1922      1.00000
     97      -3.1533      1.00000
     98      -3.1419      1.00000
     99      -3.0564      1.00000
    100      -3.0093      1.00000
    101      -2.9905      1.00000
    102      -2.9213      1.00000
    103      -2.9000      1.00000
    104      -2.8471      1.00000
    105      -2.5634      1.00000
    106      -2.5293      1.00000
    107      -2.5032      1.00000
    108      -2.4714      1.00000
    109      -2.1562      1.00000
    110      -2.0877      1.00000
    111      -2.0139      1.00000
    112      -1.9521      1.00000
    113      -1.9381      1.00000
    114      -1.8386      1.00000
    115      -1.7772      1.00000
    116      -1.7015      1.00000
    117      -1.1902      1.00000
    118      -1.1646      1.00000
    119      -1.1290      1.00000
    120      -1.0592      1.00000
    121       2.1651      0.00000
    122       2.1731      0.00000
    123       2.1973      0.00000
    124       2.2001      0.00000
    125       2.2320      0.00000
    126       2.2711      0.00000
    127       2.6789      0.00000
    128       2.7057      0.00000
    129       2.8243      0.00000
    130       2.8806      0.00000
    131       2.8935      0.00000
    132       2.9797      0.00000
    133       3.1698      0.00000
    134       3.2639      0.00000
    135       3.3150      0.00000
    136       3.3550      0.00000
    137       3.3862      0.00000
    138       3.4341      0.00000
    139       3.5781      0.00000
    140       3.5992      0.00000
    141       3.6858      0.00000
    142       3.6920      0.00000
    143       3.7763      0.00000
    144       3.7913      0.00000
    145       3.8637      0.00000
    146       3.8986      0.00000
    147       3.9455      0.00000
    148       3.9790      0.00000
    149       4.0352      0.00000
    150       4.2454      0.00000
    151       4.3921      0.00000
    152       4.4828      0.00000
    153       5.0203      0.00000
    154       5.0425      0.00000
    155       5.3931      0.00000
    156       5.7162      0.00000
    157       5.9557      0.00000
    158       6.3145      0.00000
    159       6.3689      0.00000
    160       6.5295      0.00000

 k-point     3 :       0.2500   -0.2500    0.2500
  band No.  band energies     occupation 
      1     -34.9641      1.00000
      2     -34.9602      1.00000
      3     -34.9573      1.00000
      4     -34.9550      1.00000
      5     -34.8816      1.00000
      6     -34.8760      1.00000
      7     -34.8734      1.00000
      8     -34.8703      1.00000
      9     -34.7886      1.00000
     10     -34.7769      1.00000
     11     -34.7748      1.00000
     12     -34.7651      1.00000
     13     -34.7634      1.00000
     14     -34.7593      1.00000
     15     -34.7465      1.00000
     16     -34.7406      1.00000
     17     -34.7183      1.00000
     18     -34.7085      1.00000
     19     -34.7069      1.00000
     20     -34.6976      1.00000
     21     -34.6935      1.00000
     22     -34.6879      1.00000
     23     -34.6793      1.00000
     24     -34.6702      1.00000
     25     -23.3008      1.00000
     26     -23.2723      1.00000
     27     -23.2524      1.00000
     28     -23.2288      1.00000
     29     -22.9264      1.00000
     30     -22.9083      1.00000
     31     -22.8974      1.00000
     32     -22.8811      1.00000
     33     -22.3799      1.00000
     34     -22.3687      1.00000
     35     -22.3627      1.00000
     36     -22.3438      1.00000
     37     -22.1045      1.00000
     38     -22.0854      1.00000
     39     -22.0693      1.00000
     40     -22.0480      1.00000
     41     -16.7495      1.00000
     42     -16.7075      1.00000
     43     -16.7016      1.00000
     44     -16.6201      1.00000
     45     -16.5654      1.00000
     46     -16.4874      1.00000
     47     -16.4757      1.00000
     48     -16.4415      1.00000
     49      -6.8224      1.00000
     50      -6.7768      1.00000
     51      -6.7578      1.00000
     52      -6.7168      1.00000
     53      -5.8868      1.00000
     54      -5.8567      1.00000
     55      -5.8453      1.00000
     56      -5.8125      1.00000
     57      -5.7639      1.00000
     58      -5.7316      1.00000
     59      -5.6674      1.00000
     60      -5.6452      1.00000
     61      -5.5742      1.00000
     62      -5.5439      1.00000
     63      -5.5124      1.00000
     64      -5.4718      1.00000
     65      -5.2155      1.00000
     66      -5.1613      1.00000
     67      -5.1141      1.00000
     68      -5.0914      1.00000
     69      -5.0715      1.00000
     70      -5.0308      1.00000
     71      -4.6966      1.00000
     72      -4.6399      1.00000
     73      -4.6250      1.00000
     74      -4.5930      1.00000
     75      -4.5400      1.00000
     76      -4.5275      1.00000
     77      -4.4961      1.00000
     78      -4.4762      1.00000
     79      -4.4163      1.00000
     80      -4.3741      1.00000
     81      -4.1858      1.00000
     82      -4.1047      1.00000
     83      -4.0700      1.00000
     84      -4.0225      1.00000
     85      -3.8270      1.00000
     86      -3.7663      1.00000
     87      -3.7373      1.00000
     88      -3.6987      1.00000
     89      -3.6023      1.00000
     90      -3.5387      1.00000
     91      -3.4685      1.00000
     92      -3.4593      1.00000
     93      -3.3428      1.00000
     94      -3.2766      1.00000
     95      -3.2626      1.00000
     96      -3.1984      1.00000
     97      -3.1467      1.00000
     98      -3.1271      1.00000
     99      -3.0457      1.00000
    100      -2.9973      1.00000
    101      -2.9630      1.00000
    102      -2.9008      1.00000
    103      -2.8763      1.00000
    104      -2.8429      1.00000
    105      -2.5349      1.00000
    106      -2.5204      1.00000
    107      -2.4939      1.00000
    108      -2.4576      1.00000
    109      -2.1499      1.00000
    110      -2.0865      1.00000
    111      -2.0601      1.00000
    112      -1.9944      1.00000
    113      -1.9633      1.00000
    114      -1.9303      1.00000
    115      -1.7871      1.00000
    116      -1.7031      1.00000
    117      -1.1646      1.00000
    118      -1.1376      1.00000
    119      -1.0894      1.00000
    120      -1.0475      1.00000
    121       2.1619      0.00000
    122       2.1735      0.00000
    123       2.1859      0.00000
    124       2.1911      0.00000
    125       2.2068      0.00000
    126       2.2359      0.00000
    127       2.6804      0.00000
    128       2.7026      0.00000
    129       2.8754      0.00000
    130       2.8949      0.00000
    131       2.9656      0.00000
    132       2.9835      0.00000
    133       3.1758      0.00000
    134       3.2593      0.00000
    135       3.2841      0.00000
    136       3.3267      0.00000
    137       3.3855      0.00000
    138       3.4384      0.00000
    139       3.5667      0.00000
    140       3.5937      0.00000
    141       3.6851      0.00000
    142       3.7071      0.00000
    143       3.7755      0.00000
    144       3.8116      0.00000
    145       3.8546      0.00000
    146       3.9098      0.00000
    147       3.9278      0.00000
    148       3.9725      0.00000
    149       4.0059      0.00000
    150       4.2585      0.00000
    151       4.3954      0.00000
    152       4.5102      0.00000
    153       4.9292      0.00000
    154       5.1137      0.00000
    155       5.3790      0.00000
    156       5.7149      0.00000
    157       5.9499      0.00000
    158       6.3296      0.00000
    159       6.3619      0.00000
    160       6.5627      0.00000

 k-point     4 :      -0.2500   -0.2500    0.2500
  band No.  band energies     occupation 
      1     -34.9641      1.00000
      2     -34.9602      1.00000
      3     -34.9573      1.00000
      4     -34.9550      1.00000
      5     -34.8816      1.00000
      6     -34.8760      1.00000
      7     -34.8734      1.00000
      8     -34.8703      1.00000
      9     -34.7886      1.00000
     10     -34.7769      1.00000
     11     -34.7749      1.00000
     12     -34.7651      1.00000
     13     -34.7635      1.00000
     14     -34.7592      1.00000
     15     -34.7464      1.00000
     16     -34.7406      1.00000
     17     -34.7183      1.00000
     18     -34.7085      1.00000
     19     -34.7069      1.00000
     20     -34.6977      1.00000
     21     -34.6934      1.00000
     22     -34.6880      1.00000
     23     -34.6793      1.00000
     24     -34.6701      1.00000
     25     -23.3003      1.00000
     26     -23.2732      1.00000
     27     -23.2522      1.00000
     28     -23.2286      1.00000
     29     -22.9264      1.00000
     30     -22.9083      1.00000
     31     -22.8972      1.00000
     32     -22.8812      1.00000
     33     -22.3838      1.00000
     34     -22.3645      1.00000
     35     -22.3633      1.00000
     36     -22.3430      1.00000
     37     -22.1061      1.00000
     38     -22.0839      1.00000
     39     -22.0693      1.00000
     40     -22.0483      1.00000
     41     -16.7513      1.00000
     42     -16.7085      1.00000
     43     -16.6989      1.00000
     44     -16.6184      1.00000
     45     -16.5669      1.00000
     46     -16.4865      1.00000
     47     -16.4754      1.00000
     48     -16.4426      1.00000
     49      -6.8221      1.00000
     50      -6.7771      1.00000
     51      -6.7577      1.00000
     52      -6.7168      1.00000
     53      -5.8833      1.00000
     54      -5.8603      1.00000
     55      -5.8372      1.00000
     56      -5.8135      1.00000
     57      -5.7595      1.00000
     58      -5.7359      1.00000
     59      -5.6693      1.00000
     60      -5.6487      1.00000
     61      -5.5742      1.00000
     62      -5.5429      1.00000
     63      -5.5088      1.00000
     64      -5.4743      1.00000
     65      -5.2136      1.00000
     66      -5.1691      1.00000
     67      -5.1368      1.00000
     68      -5.0957      1.00000
     69      -5.0649      1.00000
     70      -5.0326      1.00000
     71      -4.6945      1.00000
     72      -4.6401      1.00000
     73      -4.6136      1.00000
     74      -4.5708      1.00000
     75      -4.5404      1.00000
     76      -4.5203      1.00000
     77      -4.4899      1.00000
     78      -4.4753      1.00000
     79      -4.4440      1.00000
     80      -4.3615      1.00000
     81      -4.2158      1.00000
     82      -4.1299      1.00000
     83      -4.0649      1.00000
     84      -4.0052      1.00000
     85      -3.8203      1.00000
     86      -3.7520      1.00000
     87      -3.7218      1.00000
     88      -3.6374      1.00000
     89      -3.5783      1.00000
     90      -3.5281      1.00000
     91      -3.4742      1.00000
     92      -3.4360      1.00000
     93      -3.3935      1.00000
     94      -3.3029      1.00000
     95      -3.2536      1.00000
     96      -3.1945      1.00000
     97      -3.1769      1.00000
     98      -3.1110      1.00000
     99      -3.0542      1.00000
    100      -3.0184      1.00000
    101      -2.9589      1.00000
    102      -2.9509      1.00000
    103      -2.8925      1.00000
    104      -2.8523      1.00000
    105      -2.5615      1.00000
    106      -2.5311      1.00000
    107      -2.5116      1.00000
    108      -2.4835      1.00000
    109      -2.1151      1.00000
    110      -2.0798      1.00000
    111      -2.0567      1.00000
    112      -1.9601      1.00000
    113      -1.9264      1.00000
    114      -1.8289      1.00000
    115      -1.7824      1.00000
    116      -1.7003      1.00000
    117      -1.1790      1.00000
    118      -1.1516      1.00000
    119      -1.1391      1.00000
    120      -1.0732      1.00000
    121       2.1571      0.00000
    122       2.1799      0.00000
    123       2.1941      0.00000
    124       2.2030      0.00000
    125       2.2348      0.00000
    126       2.2680      0.00000
    127       2.6808      0.00000
    128       2.7024      0.00000
    129       2.8351      0.00000
    130       2.8688      0.00000
    131       2.9072      0.00000
    132       2.9693      0.00000
    133       3.1730      0.00000
    134       3.2603      0.00000
    135       3.3181      0.00000
    136       3.3452      0.00000
    137       3.3757      0.00000
    138       3.4826      0.00000
    139       3.5354      0.00000
    140       3.5989      0.00000
    141       3.6814      0.00000
    142       3.7118      0.00000
    143       3.7582      0.00000
    144       3.8178      0.00000
    145       3.8655      0.00000
    146       3.9038      0.00000
    147       3.9338      0.00000
    148       3.9834      0.00000
    149       4.0138      0.00000
    150       4.2466      0.00000
    151       4.3610      0.00000
    152       4.5766      0.00000
    153       4.8967      0.00000
    154       5.0782      0.00000
    155       5.4340      0.00000
    156       5.7223      0.00000
    157       5.9434      0.00000
    158       6.3182      0.00000
    159       6.3622      0.00000
    160       6.5580      0.00000

 spin component 2

 k-point     1 :       0.2500    0.2500    0.2500
  band No.  band energies     occupation 
      1     -34.9641      1.00000
      2     -34.9602      1.00000
      3     -34.9573      1.00000
      4     -34.9550      1.00000
      5     -34.8816      1.00000
      6     -34.8760      1.00000
      7     -34.8734      1.00000
      8     -34.8703      1.00000
      9     -34.7886      1.00000
     10     -34.7769      1.00000
     11     -34.7749      1.00000
     12     -34.7651      1.00000
     13     -34.7635      1.00000
     14     -34.7592      1.00000
     15     -34.7463      1.00000
     16     -34.7405      1.00000
     17     -34.7182      1.00000
     18     -34.7092      1.00000
     19     -34.7058      1.00000
     20     -34.6985      1.00000
     21     -34.6929      1.00000
     22     -34.6882      1.00000
     23     -34.6793      1.00000
     24     -34.6701      1.00000
     25     -23.3004      1.00000
     26     -23.2728      1.00000
     27     -23.2526      1.00000
     28     -23.2286      1.00000
     29     -22.9265      1.00000
     30     -22.9081      1.00000
     31     -22.8973      1.00000
     32     -22.8812      1.00000
     33     -22.3865      1.00000
     34     -22.3693      1.00000
     35     -22.3527      1.00000
     36     -22.3458      1.00000
     37     -22.1058      1.00000
     38     -22.0871      1.00000
     39     -22.0663      1.00000
     40     -22.0488      1.00000
     41     -16.7427      1.00000
     42     -16.7353      1.00000
     43     -16.6631      1.00000
     44     -16.6470      1.00000
     45     -16.5330      1.00000
     46     -16.5231      1.00000
     47     -16.4574      1.00000
     48     -16.4470      1.00000
     49      -6.8220      1.00000
     50      -6.7764      1.00000
     51      -6.7584      1.00000
     52      -6.7167      1.00000
     53      -5.8823      1.00000
     54      -5.8651      1.00000
     55      -5.8240      1.00000
     56      -5.8090      1.00000
     57      -5.7631      1.00000
     58      -5.7398      1.00000
     59      -5.6792      1.00000
     60      -5.6446      1.00000
     61      -5.5724      1.00000
     62      -5.5382      1.00000
     63      -5.5102      1.00000
     64      -5.4760      1.00000
     65      -5.2138      1.00000
     66      -5.1759      1.00000
     67      -5.1327      1.00000
     68      -5.1138      1.00000
     69      -5.0665      1.00000
     70      -5.0392      1.00000
     71      -4.6918      1.00000
     72      -4.6390      1.00000
     73      -4.5987      1.00000
     74      -4.5657      1.00000
     75      -4.5345      1.00000
     76      -4.5265      1.00000
     77      -4.4860      1.00000
     78      -4.4596      1.00000
     79      -4.4357      1.00000
     80      -4.3672      1.00000
     81      -4.2379      1.00000
     82      -4.1622      1.00000
     83      -4.0917      1.00000
     84      -3.9878      1.00000
     85      -3.7854      1.00000
     86      -3.7461      1.00000
     87      -3.6566      1.00000
     88      -3.5963      1.00000
     89      -3.5771      1.00000
     90      -3.5159      1.00000
     91      -3.4632      1.00000
     92      -3.4309      1.00000
     93      -3.4037      1.00000
     94      -3.3489      1.00000
     95      -3.2805      1.00000
     96      -3.1941      1.00000
     97      -3.1692      1.00000
     98      -3.1184      1.00000
     99      -3.0847      1.00000
    100      -3.0155      1.00000
    101      -2.9841      1.00000
    102      -2.9632      1.00000
    103      -2.9098      1.00000
    104      -2.8773      1.00000
    105      -2.5708      1.00000
    106      -2.5545      1.00000
    107      -2.5236      1.00000
    108      -2.5045      1.00000
    109      -2.0921      1.00000
    110      -2.0807      1.00000
    111      -1.9792      1.00000
    112      -1.9434      1.00000
    113      -1.8464      1.00000
    114      -1.8385      1.00000
    115      -1.7761      1.00000
    116      -1.6779      1.00000
    117      -1.1970      1.00000
    118      -1.1694      1.00000
    119      -1.1508      1.00000
    120      -1.1307      1.00000
    121       2.1609      0.00000
    122       2.1898      0.00000
    123       2.2021      0.00000
    124       2.2305      0.00000
    125       2.2613      0.00000
    126       2.2768      0.00000
    127       2.6795      0.00000
    128       2.7041      0.00000
    129       2.8184      0.00000
    130       2.8407      0.00000
    131       2.8807      0.00000
    132       2.8977      0.00000
    133       3.1811      0.00000
    134       3.2628      0.00000
    135       3.3272      0.00000
    136       3.3661      0.00000
    137       3.4064      0.00000
    138       3.4639      0.00000
    139       3.5469      0.00000
    140       3.5880      0.00000
    141       3.6848      0.00000
    142       3.7039      0.00000
    143       3.7807      0.00000
    144       3.8104      0.00000
    145       3.8546      0.00000
    146       3.9060      0.00000
    147       3.9341      0.00000
    148       3.9825      0.00000
    149       4.0511      0.00000
    150       4.2271      0.00000
    151       4.3667      0.00000
    152       4.5429      0.00000
    153       4.9519      0.00000
    154       5.0479      0.00000
    155       5.4492      0.00000
    156       5.7199      0.00000
    157       5.9494      0.00000
    158       6.3030      0.00000
    159       6.3720      0.00000
    160       6.5121      0.00000

 k-point     2 :      -0.2500    0.2500    0.2500
  band No.  band energies     occupation 
      1     -34.9641      1.00000
      2     -34.9602      1.00000
      3     -34.9573      1.00000
      4     -34.9550      1.00000
      5     -34.8816      1.00000
      6     -34.8760      1.00000
      7     -34.8734      1.00000
      8     -34.8703      1.00000
      9     -34.7886      1.00000
     10     -34.7769      1.00000
     11     -34.7749      1.00000
     12     -34.7650      1.00000
     13     -34.7635      1.00000
     14     -34.7593      1.00000
     15     -34.7464      1.00000
     16     -34.7405      1.00000
     17     -34.7182      1.00000
     18     -34.7094      1.00000
     19     -34.7057      1.00000
     20     -34.6984      1.00000
     21     -34.6929      1.00000
     22     -34.6882      1.00000
     23     -34.6793      1.00000
     24     -34.6701      1.00000
     25     -23.3008      1.00000
     26     -23.2722      1.00000
     27     -23.2525      1.00000
     28     -23.2288      1.00000
     29     -22.9264      1.00000
     30     -22.9083      1.00000
     31     -22.8973      1.00000
     32     -22.8812      1.00000
     33     -22.3849      1.00000
     34     -22.3681      1.00000
     35     -22.3555      1.00000
     36     -22.3462      1.00000
     37     -22.1052      1.00000
     38     -22.0873      1.00000
     39     -22.0660      1.00000
     40     -22.0492      1.00000
     41     -16.7403      1.00000
     42     -16.7364      1.00000
     43     -16.6610      1.00000
     44     -16.6515      1.00000
     45     -16.5341      1.00000
     46     -16.5210      1.00000
     47     -16.4587      1.00000
     48     -16.4456      1.00000
     49      -6.8223      1.00000
     50      -6.7764      1.00000
     51      -6.7580      1.00000
     52      -6.7169      1.00000
     53      -5.8884      1.00000
     54      -5.8595      1.00000
     55      -5.8338      1.00000
     56      -5.8099      1.00000
     57      -5.7639      1.00000
     58      -5.7332      1.00000
     59      -5.6740      1.00000
     60      -5.6448      1.00000
     61      -5.5744      1.00000
     62      -5.5385      1.00000
     63      -5.5145      1.00000
     64      -5.4730      1.00000
     65      -5.2149      1.00000
     66      -5.1660      1.00000
     67      -5.1181      1.00000
     68      -5.1048      1.00000
     69      -5.0721      1.00000
     70      -5.0370      1.00000
     71      -4.6979      1.00000
     72      -4.6412      1.00000
     73      -4.6125      1.00000
     74      -4.5792      1.00000
     75      -4.5407      1.00000
     76      -4.5274      1.00000
     77      -4.4891      1.00000
     78      -4.4629      1.00000
     79      -4.4096      1.00000
     80      -4.3779      1.00000
     81      -4.2292      1.00000
     82      -4.1276      1.00000
     83      -4.0895      1.00000
     84      -3.9940      1.00000
     85      -3.8041      1.00000
     86      -3.7793      1.00000
     87      -3.7079      1.00000
     88      -3.6034      1.00000
     89      -3.5961      1.00000
     90      -3.5011      1.00000
     91      -3.4900      1.00000
     92      -3.4355      1.00000
     93      -3.4038      1.00000
     94      -3.2955      1.00000
     95      -3.2708      1.00000
     96      -3.1922      1.00000
     97      -3.1533      1.00000
     98      -3.1419      1.00000
     99      -3.0564      1.00000
    100      -3.0093      1.00000
    101      -2.9905      1.00000
    102      -2.9213      1.00000
    103      -2.9000      1.00000
    104      -2.8471      1.00000
    105      -2.5634      1.00000
    106      -2.5293      1.00000
    107      -2.5032      1.00000
    108      -2.4714      1.00000
    109      -2.1562      1.00000
    110      -2.0877      1.00000
    111      -2.0139      1.00000
    112      -1.9521      1.00000
    113      -1.9381      1.00000
    114      -1.8386      1.00000
    115      -1.7772      1.00000
    116      -1.7015      1.00000
    117      -1.1902      1.00000
    118      -1.1646      1.00000
    119      -1.1290      1.00000
    120      -1.0592      1.00000
    121       2.1651      0.00000
    122       2.1731      0.00000
    123       2.1973      0.00000
    124       2.2001      0.00000
    125       2.2320      0.00000
    126       2.2711      0.00000
    127       2.6789      0.00000
    128       2.7057      0.00000
    129       2.8243      0.00000
    130       2.8806      0.00000
    131       2.8935      0.00000
    132       2.9797      0.00000
    133       3.1698      0.00000
    134       3.2639      0.00000
    135       3.3150      0.00000
    136       3.3550      0.00000
    137       3.3862      0.00000
    138       3.4341      0.00000
    139       3.5781      0.00000
    140       3.5992      0.00000
    141       3.6858      0.00000
    142       3.6920      0.00000
    143       3.7763      0.00000
    144       3.7913      0.00000
    145       3.8637      0.00000
    146       3.8986      0.00000
    147       3.9455      0.00000
    148       3.9790      0.00000
    149       4.0352      0.00000
    150       4.2454      0.00000
    151       4.3921      0.00000
    152       4.4828      0.00000
    153       5.0203      0.00000
    154       5.0425      0.00000
    155       5.3931      0.00000
    156       5.7162      0.00000
    157       5.9557      0.00000
    158       6.3145      0.00000
    159       6.3689      0.00000
    160       6.5295      0.00000

 k-point     3 :       0.2500   -0.2500    0.2500
  band No.  band energies     occupation 
      1     -34.9641      1.00000
      2     -34.9602      1.00000
      3     -34.9573      1.00000
      4     -34.9550      1.00000
      5     -34.8816      1.00000
      6     -34.8760      1.00000
      7     -34.8734      1.00000
      8     -34.8703      1.00000
      9     -34.7886      1.00000
     10     -34.7769      1.00000
     11     -34.7748      1.00000
     12     -34.7651      1.00000
     13     -34.7634      1.00000
     14     -34.7593      1.00000
     15     -34.7465      1.00000
     16     -34.7406      1.00000
     17     -34.7183      1.00000
     18     -34.7085      1.00000
     19     -34.7069      1.00000
     20     -34.6976      1.00000
     21     -34.6935      1.00000
     22     -34.6879      1.00000
     23     -34.6793      1.00000
     24     -34.6702      1.00000
     25     -23.3008      1.00000
     26     -23.2723      1.00000
     27     -23.2524      1.00000
     28     -23.2288      1.00000
     29     -22.9264      1.00000
     30     -22.9083      1.00000
     31     -22.8974      1.00000
     32     -22.8811      1.00000
     33     -22.3799      1.00000
     34     -22.3687      1.00000
     35     -22.3627      1.00000
     36     -22.3438      1.00000
     37     -22.1045      1.00000
     38     -22.0854      1.00000
     39     -22.0693      1.00000
     40     -22.0480      1.00000
     41     -16.7495      1.00000
     42     -16.7075      1.00000
     43     -16.7016      1.00000
     44     -16.6201      1.00000
     45     -16.5654      1.00000
     46     -16.4874      1.00000
     47     -16.4757      1.00000
     48     -16.4415      1.00000
     49      -6.8224      1.00000
     50      -6.7768      1.00000
     51      -6.7578      1.00000
     52      -6.7168      1.00000
     53      -5.8868      1.00000
     54      -5.8567      1.00000
     55      -5.8453      1.00000
     56      -5.8125      1.00000
     57      -5.7639      1.00000
     58      -5.7316      1.00000
     59      -5.6674      1.00000
     60      -5.6452      1.00000
     61      -5.5742      1.00000
     62      -5.5439      1.00000
     63      -5.5124      1.00000
     64      -5.4718      1.00000
     65      -5.2155      1.00000
     66      -5.1613      1.00000
     67      -5.1141      1.00000
     68      -5.0914      1.00000
     69      -5.0715      1.00000
     70      -5.0308      1.00000
     71      -4.6966      1.00000
     72      -4.6399      1.00000
     73      -4.6250      1.00000
     74      -4.5930      1.00000
     75      -4.5400      1.00000
     76      -4.5275      1.00000
     77      -4.4961      1.00000
     78      -4.4762      1.00000
     79      -4.4163      1.00000
     80      -4.3741      1.00000
     81      -4.1858      1.00000
     82      -4.1047      1.00000
     83      -4.0700      1.00000
     84      -4.0225      1.00000
     85      -3.8270      1.00000
     86      -3.7663      1.00000
     87      -3.7373      1.00000
     88      -3.6987      1.00000
     89      -3.6023      1.00000
     90      -3.5387      1.00000
     91      -3.4685      1.00000
     92      -3.4593      1.00000
     93      -3.3428      1.00000
     94      -3.2766      1.00000
     95      -3.2626      1.00000
     96      -3.1984      1.00000
     97      -3.1467      1.00000
     98      -3.1271      1.00000
     99      -3.0457      1.00000
    100      -2.9973      1.00000
    101      -2.9630      1.00000
    102      -2.9008      1.00000
    103      -2.8763      1.00000
    104      -2.8429      1.00000
    105      -2.5349      1.00000
    106      -2.5204      1.00000
    107      -2.4939      1.00000
    108      -2.4576      1.00000
    109      -2.1499      1.00000
    110      -2.0865      1.00000
    111      -2.0601      1.00000
    112      -1.9944      1.00000
    113      -1.9633      1.00000
    114      -1.9303      1.00000
    115      -1.7871      1.00000
    116      -1.7031      1.00000
    117      -1.1646      1.00000
    118      -1.1376      1.00000
    119      -1.0894      1.00000
    120      -1.0475      1.00000
    121       2.1619      0.00000
    122       2.1735      0.00000
    123       2.1859      0.00000
    124       2.1911      0.00000
    125       2.2068      0.00000
    126       2.2359      0.00000
    127       2.6804      0.00000
    128       2.7026      0.00000
    129       2.8754      0.00000
    130       2.8949      0.00000
    131       2.9656      0.00000
    132       2.9835      0.00000
    133       3.1758      0.00000
    134       3.2593      0.00000
    135       3.2841      0.00000
    136       3.3267      0.00000
    137       3.3855      0.00000
    138       3.4384      0.00000
    139       3.5667      0.00000
    140       3.5937      0.00000
    141       3.6851      0.00000
    142       3.7071      0.00000
    143       3.7755      0.00000
    144       3.8116      0.00000
    145       3.8546      0.00000
    146       3.9098      0.00000
    147       3.9278      0.00000
    148       3.9725      0.00000
    149       4.0059      0.00000
    150       4.2585      0.00000
    151       4.3954      0.00000
    152       4.5102      0.00000
    153       4.9292      0.00000
    154       5.1137      0.00000
    155       5.3790      0.00000
    156       5.7149      0.00000
    157       5.9499      0.00000
    158       6.3296      0.00000
    159       6.3619      0.00000
    160       6.5627      0.00000

 k-point     4 :      -0.2500   -0.2500    0.2500
  band No.  band energies     occupation 
      1     -34.9641      1.00000
      2     -34.9602      1.00000
      3     -34.9573      1.00000
[...]
  0.000   0.000   0.000  -0.000   0.000  -0.000  -0.000   0.000  -0.000   0.000  -0.000  -0.000  -0.000   0.000  -0.000  -0.000
  0.000   0.000   0.000  -0.000  -0.000  -0.000   0.000   0.000   0.000  -0.000  -0.000   0.000  -0.000  -0.000  -0.000   0.000
  0.000  -0.000   0.000   0.000   0.000  -0.000  -0.000   0.000   0.000  -0.000   0.000   0.000  -0.000  -0.000  -0.000  -0.000
 -0.000  -0.000  -0.000  -0.000  -0.000   0.000   0.000  -0.000   0.000  -0.000  -0.000  -0.000   0.000  -0.000   0.000   0.000
 -0.000   0.000  -0.000  -0.000  -0.000   0.000   0.000   0.000   0.000   0.000  -0.000  -0.000  -0.000  -0.000   0.000   0.000
 -0.000  -0.000  -0.000   0.000  -0.000   0.000   0.000  -0.000  -0.000  -0.000  -0.000  -0.000   0.000   0.000  -0.000   0.000
 -0.000  -0.000  -0.000   0.000   0.000   0.000   0.000  -0.000  -0.000  -0.000   0.000  -0.000   0.000   0.000   0.000   0.000
 -0.000  -0.000  -0.000   0.000  -0.000  -0.000   0.000  -0.000  -0.000   0.000   0.000   0.000   0.000  -0.000   0.000  -0.000
 -0.000  -0.000  -0.000  -0.000   0.000  -0.000   0.000  -0.000   0.000   0.000  -0.000  -0.000   0.000   0.000  -0.000   0.000


------------------------ aborting loop because EDIFF is reached ----------------------------------------


 


 total charge     
 
# of ion       s       p       d       tot
------------------------------------------
    1        0.319   6.462   1.758   8.538
    2        0.320   6.464   1.763   8.548
    3        0.318   6.460   1.752   8.529
    4        0.318   6.461   1.759   8.538
    5        0.319   6.463   1.765   8.547
    6        0.320   6.465   1.769   8.555
    7        0.319   6.462   1.757   8.538
    8        0.319   6.463   1.764   8.546
    9        1.568   3.463   0.000   5.030
   10        1.568   3.463   0.000   5.031
   11        1.569   3.470   0.000   5.039
   12        1.570   3.473   0.000   5.043
   13        1.571   3.475   0.000   5.046
   14        1.570   3.473   0.000   5.043
   15        1.569   3.466   0.000   5.035
   16        1.569   3.467   0.000   5.035
   17        1.730   4.391   0.000   6.121
   18        1.731   4.393   0.000   6.123
   19        1.728   4.370   0.000   6.098
   20        1.728   4.370   0.000   6.099
   21        1.730   4.390   0.000   6.120
   22        1.730   4.391   0.000   6.122
   23        1.730   4.380   0.000   6.110
   24        1.729   4.378   0.000   6.108
   25        1.729   4.378   0.000   6.108
   26        1.729   4.377   0.000   6.106
   27        1.728   4.368   0.000   6.096
   28        1.730   4.390   0.000   6.120
   29        1.730   4.388   0.000   6.118
   30        1.728   4.369   0.000   6.097
   31        1.730   4.390   0.000   6.120
   32        1.731   4.392   0.000   6.122
--------------------------------------------------
tot         42.779 149.564  14.087 206.430
 


 magnetization (x)
 
# of ion       s       p       d       tot
------------------------------------------
    1        0.000  -0.000  -0.000  -0.000
    2       -0.000   0.000   0.000   0.000
    3        0.000   0.000   0.000   0.000
    4        0.000   0.000   0.000   0.000
    5       -0.000  -0.000  -0.000  -0.000
    6       -0.000  -0.000  -0.000  -0.000
    7       -0.000   0.000   0.000   0.000
    8        0.000   0.000  -0.000  -0.000
    9        0.000  -0.000   0.000  -0.000
   10       -0.000  -0.000   0.000  -0.000
   11        0.000   0.000   0.000   0.000
   12        0.000  -0.000   0.000  -0.000
   13       -0.000   0.000   0.000   0.000
   14       -0.000  -0.000   0.000  -0.000
   15       -0.000  -0.000   0.000  -0.000
   16        0.000   0.000   0.000   0.000
   17        0.000   0.000   0.000   0.000
   18       -0.000   0.000   0.000  -0.000
   19        0.000   0.000   0.000   0.000
   20        0.000  -0.000   0.000   0.000
   21        0.000  -0.000   0.000   0.000
   22       -0.000  -0.000   0.000  -0.000
   23        0.000  -0.000   0.000  -0.000
   24       -0.000  -0.000   0.000  -0.000
   25        0.000  -0.000   0.000  -0.000
   26       -0.000  -0.000   0.000  -0.000
   27        0.000  -0.000   0.000  -0.000
   28       -0.000   0.000   0.000   0.000
   29        0.000  -0.000   0.000  -0.000
   30       -0.000   0.000   0.000   0.000
   31       -0.000  -0.000   0.000  -0.000
   32       -0.000  -0.000   0.000  -0.000
--------------------------------------------------
tot          0.000  -0.000  -0.000  -0.000
 
    CHARGE:  cpu time    0.4579: real time    0.4577
    FORLOC:  cpu time    0.0110: real time    0.0104
    FORNL :  cpu time    2.0787: real time    2.0760
    STRESS:  cpu time    6.4730: real time    6.4623
    FORCOR:  cpu time    0.1330: real time    0.1332
    FORHAR:  cpu time    0.0210: real time    0.0212
    MIXING:  cpu time    0.0020: real time    0.0017
    OFIELD:  cpu time    0.0000: real time    0.0000

  FORCE on cell =-STRESS in cart. coord.  units (eV):
  Direction    XX          YY          ZZ          XY          YZ          ZX
  --------------------------------------------------------------------------------------
  Alpha Z   761.33607   761.33607   761.33607
  Ewald   -4283.53473 -4243.95326 -4299.53598     4.92848     9.51375     0.16107
  Hartree  2735.32099  2753.34955  2729.30034     1.78255     2.65956     0.07722
  E(xc)   -1232.31864 -1232.59477 -1232.33580    -0.02337    -0.02192    -0.00003
  Local   -2124.65900 -2211.25477 -2102.90053    -7.49654   -12.83167    -0.24048
  n-local  -968.78082  -963.24089  -968.93281     0.43536     0.50403     0.00058
  augment   753.82137   763.67037   753.89313     0.45985     0.47646     0.00421
  Kinetic  4358.91860  4372.77211  4359.29123    -0.08479    -0.29978    -0.00241
  Fock        0.00000     0.00000     0.00000     0.00000     0.00000     0.00000
  -------------------------------------------------------------------------------------
  Total       0.10384     0.08440     0.11566     0.00153     0.00044     0.00015
  in kB       0.36172     0.29401     0.40288     0.00533     0.00153     0.00053
  external pressure =        0.35 kB  Pullay stress =        0.00 kB


 VOLUME and BASIS-vectors are now :
 -----------------------------------------------------------------------------
  energy-cutoff  :      700.00
  volume of cell :      459.94
      direct lattice vectors                 reciprocal lattice vectors
     7.754503493 -0.001496216  0.000095443     0.128957327  0.000026350 -0.000001586
    -0.001563504  7.651576258 -0.001789810     0.000025216  0.130692038  0.000029475
     0.000095701 -0.001748228  7.751626371    -0.000001582  0.000030176  0.129005193

  length of vectors
     7.754503638  7.651576627  7.751626569     0.128957329  0.130692043  0.129005196


 FORCES acting on ions
    electron-ion (+dipol)            ewald-force                    non-local-force                 convergence-correction
 -----------------------------------------------------------------------------------------------
   0.834E+01 0.346E+02 0.353E+01   -.828E+01 -.355E+02 -.454E+01   -.613E-01 0.809E+00 0.102E+01   0.101E-03 0.164E-03 -.138E-03
   0.812E+01 0.151E+02 -.439E+01   -.807E+01 -.161E+02 0.541E+01   -.460E-01 0.948E+00 -.102E+01   0.750E-04 0.418E-03 0.230E-03
   0.236E+02 -.336E+02 0.673E+01   -.245E+02 0.344E+02 -.663E+01   0.901E+00 -.803E+00 -.932E-01   -.353E-04 -.159E-03 -.399E-04
   0.242E+02 -.190E+02 -.674E+01   -.251E+02 0.199E+02 0.665E+01   0.925E+00 -.900E+00 0.940E-01   0.257E-03 -.605E-04 0.289E-04
   -.826E+01 0.204E+02 -.452E+01   0.820E+01 -.213E+02 0.557E+01   0.603E-01 0.907E+00 -.104E+01   -.103E-03 0.538E-04 -.323E-03
   -.813E+01 0.487E+01 0.540E+01   0.808E+01 -.385E+01 -.645E+01   0.458E-01 -.102E+01 0.105E+01   -.103E-03 0.566E-04 0.169E-03
   -.248E+02 -.147E+02 -.702E+01   0.257E+02 0.157E+02 0.694E+01   -.905E+00 -.938E+00 0.816E-01   0.120E-03 -.385E-03 -.596E-04
   -.253E+02 -.556E+01 0.692E+01   0.263E+02 0.455E+01 -.684E+01   -.927E+00 0.101E+01 -.806E-01   -.160E-03 -.179E-04 0.882E-04
   0.297E+00 0.761E+01 -.571E-01   -.330E+00 -.990E+01 0.525E-01   0.297E-01 0.229E+01 0.482E-02   -.359E-03 -.944E-04 -.375E-04
   0.844E-01 -.599E+01 0.132E-01   -.113E+00 0.612E+01 -.333E-02   0.284E-01 -.126E+00 -.986E-02   -.216E-03 -.805E-04 0.383E-04
   -.453E+01 -.437E+00 -.105E+02   0.584E+01 0.486E+00 0.119E+02   -.130E+01 -.456E-01 -.146E+01   0.127E-04 0.471E-04 -.328E-04
   -.319E+01 0.416E+00 0.107E+02   0.444E+01 -.261E+00 -.122E+02   -.125E+01 -.156E+00 0.148E+01   0.100E-03 0.140E-03 0.804E-04
   0.225E+01 0.340E+00 -.827E+01   -.347E+01 -.395E+00 0.960E+01   0.122E+01 0.490E-01 -.133E+01   -.705E-04 -.201E-03 0.769E-04
   0.418E+01 -.112E+01 0.821E+01   -.547E+01 0.106E+01 -.958E+01   0.130E+01 0.629E-01 0.137E+01   0.392E-04 -.163E-03 -.122E-03
   0.488E+01 -.724E+01 0.210E+00   -.500E+01 0.951E+01 -.248E+00   0.122E+00 -.227E+01 0.384E-01   0.316E-04 0.931E-04 -.365E-03
   -.470E+01 0.694E+01 -.172E+00   0.481E+01 -.708E+01 0.226E+00   -.103E+00 0.145E+00 -.512E-01   -.320E-04 0.779E-04 0.474E-03
   -.354E+00 -.612E+01 -.239E-01   0.364E+00 0.103E+02 0.130E-01   -.108E-01 -.418E+01 0.111E-01   -.871E-04 0.144E-03 -.117E-03
   -.124E+00 0.614E+01 0.903E-01   0.142E+00 -.620E+01 -.788E-01   -.167E-01 0.631E-01 -.115E-01   0.357E-04 0.102E-03 0.112E-03
   0.403E+00 -.174E+01 -.142E+00   -.438E+00 -.555E+00 0.144E+00   0.349E-01 0.230E+01 -.192E-02   0.276E-03 -.156E-03 -.526E-04
   0.764E+00 -.738E+01 0.121E+00   -.806E+00 0.749E+01 -.119E+00   0.408E-01 -.119E+00 -.264E-02   0.140E-03 -.763E-04 0.533E-04
   0.376E+00 -.131E+02 -.506E-01   -.371E+00 0.177E+02 0.434E-01   -.386E-02 -.459E+01 0.759E-02   0.105E-03 0.163E-03 -.118E-03
   0.124E+00 0.596E+01 0.148E+00   -.143E+00 -.605E+01 -.143E+00   0.183E-01 0.913E-01 -.513E-02   -.119E-04 0.975E-04 0.109E-03
   0.542E+00 -.478E+00 -.575E+01   0.967E+00 0.552E+00 0.736E+01   -.150E+01 -.753E-01 -.161E+01   0.634E-04 -.571E-04 -.233E-04
   -.838E+00 -.768E+00 0.516E+01   0.234E+01 0.111E+01 -.675E+01   -.151E+01 -.350E+00 0.158E+01   0.119E-03 -.443E-03 0.581E-04
   -.745E+00 -.362E+00 0.772E+01   -.748E+00 0.180E+00 -.936E+01   0.149E+01 0.185E+00 0.164E+01   -.306E-04 0.475E-03 -.147E-03
   0.127E+01 0.559E+00 -.694E+01   -.277E+01 -.648E+00 0.856E+01   0.150E+01 0.912E-01 -.162E+01   -.992E-04 0.166E-03 0.107E-03
   0.529E+01 0.202E+01 0.604E+00   -.539E+01 0.230E+00 -.667E+00   0.101E+00 -.225E+01 0.635E-01   0.373E-04 0.159E-03 0.271E-03
   -.106E+02 0.637E+01 -.382E+00   0.149E+02 -.105E+02 0.378E+00   -.423E+01 0.416E+01 0.349E-02   0.127E-03 -.151E-03 0.474E-04
   -.970E+01 0.124E+02 0.398E+00   0.138E+02 -.169E+02 -.405E+00   -.407E+01 0.448E+01 0.795E-02   0.132E-03 -.163E-03 -.303E-04
   -.525E+01 0.655E+01 -.101E+01   0.534E+01 -.665E+01 0.110E+01   -.972E-01 0.107E+00 -.938E-01   -.397E-04 0.822E-04 -.373E-03
   0.103E+02 -.664E+01 -.726E-01   -.145E+02 0.675E+01 0.887E-01   0.420E+01 -.106E+00 -.173E-01   -.805E-04 -.827E-04 -.112E-03
   0.113E+02 -.580E+01 0.609E-01   -.157E+02 0.587E+01 -.741E-01   0.436E+01 -.701E-01 0.135E-01   -.888E-04 -.903E-04 0.851E-04
 -----------------------------------------------------------------------------------------------
   -.338E+00 0.305E+00 0.470E-02   -.302E-12 0.284E-13 0.658E-13   0.337E+00 -.303E+00 -.232E-02   0.256E-03 0.602E-04 -.649E-04
 
 
 POSITION                                       TOTAL-FORCE (eV/Angst)
 -----------------------------------------------------------------------------------
      0.00101      7.56419      7.64564         0.000555      0.000162      0.000024
      0.00155      7.55633      3.97822         0.000978     -0.006323     -0.000614
      7.65499      3.91041      0.00252        -0.002548     -0.002552      0.000280
      7.65531      3.91196      3.87196        -0.002681     -0.008498      0.000648
      3.87374      7.56330      0.10247         0.000034      0.006342     -0.000854
      3.87472      0.09380      3.77216         0.000089     -0.000175     -0.000972
      3.97505      3.91831      7.74684         0.002667      0.005125     -0.000030
      3.97469      3.72747      3.87841         0.002107      0.003576     -0.000599
      5.81532      3.80094      7.75027        -0.003762     -0.000223      0.000133
      5.81507      3.82698      3.87570        -0.000067     -0.003362     -0.000016
      0.01192      5.73859      0.01822        -0.003406      0.004070     -0.002445
      0.01041      5.73307      3.85538         0.001356     -0.001373      0.003690
      3.86757      1.91115      3.88921        -0.000261     -0.005759     -0.000618
      3.86448      5.74103      7.73367         0.004837      0.003409     -0.001305
      7.74967      0.01636      5.81423         0.000401     -0.001969      0.000389
      3.88035      7.64635      1.93599        -0.000184      0.003267      0.002850
      1.93907      0.07416      7.75102        -0.000649     -0.001157     -0.000009
      1.93745      7.64684      3.87497         0.001678     -0.002860      0.000058
      1.93840      3.78136      7.75050         0.000327      0.008445      0.000069
      1.93854      3.82779      3.87539        -0.000570     -0.004461     -0.000074
      5.81610      0.09026      7.75131         0.001457      0.009480      0.000206
      5.81446      7.64479      3.87471        -0.000681     -0.004234     -0.000416
      0.02830      1.91211      0.03283         0.004202     -0.001018      0.002887
      0.03036      1.90483      3.84297        -0.000926     -0.004713     -0.001964
      3.84854      1.91595      7.71491        -0.003977      0.004560      0.000630
      3.84533      5.73774      3.91125         0.000582      0.001655     -0.000471
      7.74885      0.04077      1.93904         0.000128     -0.007026      0.000011
      0.06351      3.74905      1.93722        -0.000697     -0.000919      0.000022
      0.06101      3.73509      5.81287        -0.000671     -0.006269      0.000357
      3.88170      7.64652      5.81080         0.000456      0.004794     -0.000781
      3.81187      3.82963      1.93701         0.000152      0.005044     -0.001433
      3.80885      3.82724      5.81250        -0.000922      0.002963      0.000348
 -----------------------------------------------------------------------------------
    total drift:                               -0.000897      0.002441      0.002318


--------------------------------------------------------------------------------------------------------



  FREE ENERGIE OF THE ION-ELECTRON SYSTEM (eV)
  ---------------------------------------------------
  free  energy   TOTEN  =      -213.54720175 eV

  energy  without entropy=     -213.54720175  energy(sigma->0) =     -213.54720175
 


--------------------------------------------------------------------------------------------------------


    POTLOK:  cpu time    0.9899: real time    0.9893


--------------------------------------------------------------------------------------------------------


 stress matrix after NEB project (eV)
      0.10384      0.00153      0.00015
      0.00153      0.08440      0.00044
      0.00015      0.00044      0.11566
  FORCES: max atom, RMS     0.009594    0.005180
  FORCE total and by dimension    0.029305    0.009480
  Stress total and by dimension    0.176883    0.115656
 Quasi-Newton relaxation of ions (Broydens 2nd method)
  g(Force)  = 0.414E-04   g(Stress)= 0.472E-04

 Reset! Starting new Quasi-Newton update for ions 


--------------------------------------------------------------------------------------------------------


  
 reached required accuracy - stopping structural energy minimisation
 writing wavefunctions
     LOOP+:  cpu time   42.3156: real time   42.7577
    4ORBIT:  cpu time    0.0000: real time    0.0000
 


 total charge     
 
# of ion       s       p       d       tot
------------------------------------------
    1        0.319   6.462   1.758   8.538
    2        0.320   6.464   1.763   8.548
    3        0.318   6.460   1.752   8.529
    4        0.318   6.461   1.759   8.538
    5        0.319   6.463   1.765   8.547
    6        0.320   6.465   1.769   8.555
    7        0.319   6.462   1.757   8.538
    8        0.319   6.463   1.764   8.546
    9        1.568   3.463   0.000   5.030
   10        1.568   3.463   0.000   5.031
   11        1.569   3.470   0.000   5.039
   12        1.570   3.473   0.000   5.043
   13        1.571   3.475   0.000   5.046
   14        1.570   3.473   0.000   5.043
   15        1.569   3.466   0.000   5.035
   16        1.569   3.467   0.000   5.035
   17        1.730   4.391   0.000   6.121
   18        1.731   4.393   0.000   6.123
   19        1.728   4.370   0.000   6.098
   20        1.728   4.370   0.000   6.099
   21        1.730   4.390   0.000   6.120
   22        1.730   4.391   0.000   6.122
   23        1.730   4.380   0.000   6.110
   24        1.729   4.378   0.000   6.108
   25        1.729   4.378   0.000   6.108
   26        1.729   4.377   0.000   6.106
   27        1.728   4.368   0.000   6.096
   28        1.730   4.390   0.000   6.120
   29        1.730   4.388   0.000   6.118
   30        1.728   4.369   0.000   6.097
   31        1.730   4.390   0.000   6.120
   32        1.731   4.392   0.000   6.122
--------------------------------------------------
tot         42.779 149.564  14.087 206.430
 


 magnetization (x)
 
# of ion       s       p       d       tot
------------------------------------------
    1        0.000  -0.000  -0.000  -0.000
    2       -0.000   0.000   0.000   0.000
    3        0.000   0.000   0.000   0.000
    4        0.000   0.000   0.000   0.000
    5       -0.000  -0.000  -0.000  -0.000
    6       -0.000  -0.000  -0.000  -0.000
    7       -0.000   0.000   0.000   0.000
    8        0.000   0.000  -0.000  -0.000
    9        0.000  -0.000   0.000  -0.000
   10       -0.000  -0.000   0.000  -0.000
   11        0.000   0.000   0.000   0.000
   12        0.000  -0.000   0.000  -0.000
   13       -0.000   0.000   0.000   0.000
   14       -0.000  -0.000   0.000  -0.000
   15       -0.000  -0.000   0.000  -0.000
   16        0.000   0.000   0.000   0.000
   17        0.000   0.000   0.000   0.000
   18       -0.000   0.000   0.000  -0.000
   19        0.000   0.000   0.000   0.000
   20        0.000  -0.000   0.000   0.000
   21        0.000  -0.000   0.000   0.000
   22       -0.000  -0.000   0.000  -0.000
   23        0.000  -0.000   0.000  -0.000
   24       -0.000  -0.000   0.000  -0.000
   25        0.000  -0.000   0.000  -0.000
   26       -0.000  -0.000   0.000  -0.000
   27        0.000  -0.000   0.000  -0.000
   28       -0.000   0.000   0.000   0.000
   29        0.000  -0.000   0.000  -0.000
   30       -0.000   0.000   0.000   0.000
   31       -0.000  -0.000   0.000  -0.000
   32       -0.000  -0.000   0.000  -0.000
--------------------------------------------------
tot          0.000  -0.000  -0.000  -0.000
 

 total amount of memory used by VASP MPI-rank0    62257. kBytes
=======================================================================

   base      :      30000. kBytes
   nonlr-proj:       8621. kBytes
   fftplans  :       8422. kBytes
   grid      :       8783. kBytes
   one-center:        124. kBytes
   wavefun   :       6307. kBytes
 
  
  
 General timing and accounting informations for this job:
 ========================================================
  
                  Total CPU time used (sec):       62.717
                            User time (sec):       55.802
                          System time (sec):        6.916
                         Elapsed time (sec):       64.343
  
                   Maximum memory used (kb):      176424.
                   Average memory used (kb):           0.
  
                          Minor page faults:       100695
                          Major page faults:            3
                 Voluntary context switches:        18326
