 vasp.5.4.4.18Apr17-6-g9f103f2a35 (build Jul 16 2019 12:12:28) complex          
  
 executed on             LinuxIFC date 2020.01.06  10:23:30
 running on   96 total cores
 distrk:  each k-point on   96 cores,    1 groups
 distr:  one band on NCORES_PER_BAND=   8 cores,   12 groups


--------------------------------------------------------------------------------------------------------


 INCAR:
 POTCAR:    PAW_PBE Li_sv 10Sep2004               
 POTCAR:    PAW_PBE Ti_pv 07Sep2000               
 POTCAR:    PAW_PBE O 08Apr2002                   
 POTCAR:    PAW_PBE F 08Apr2002                   
 POTCAR:    PAW_PBE Li_sv 10Sep2004               
   VRHFIN =Li: 1s2s2p                                                           
   LEXCH  = PE                                                                  
   EATOM  =   202.7858 eV,   14.9043 Ry                                         
                                                                                
   TITEL  = PAW_PBE Li_sv 10Sep2004                                             
   LULTRA =        F    use ultrasoft PP ?                                      
   IUNSCR =        0    unscreen: 0-lin 1-nonlin 2-no                           
   RPACOR =    0.000    partial core radius                                     
   POMASS =    7.010; ZVAL   =    3.000    mass and valenz                      
   RCORE  =    1.700    outmost cutoff radius                                   
   RWIGS  =    2.050; RWIGS  =    1.085    wigner-seitz radius (au A)           
   ENMAX  =  499.034; ENMIN  =  374.276 eV                                      
   ICORE  =        2    local potential                                         
   LCOR   =        T    correct aug charges                                     
   LPAW   =        T    paw PP                                                  
   EAUG   =  628.945                                                            
   RMAX   =    1.732    core radius for proj-oper                               
   RAUG   =    1.300    factor for augmentation sphere                          
   RDEP   =    1.728    radius for radial grids                                 
   RDEPT  =    1.329    core radius for aug-charge                              
                                                                                
   Atomic configuration                                                         
    4 entries                                                                   
     n  l   j            E        occ.                                          
     1  0  0.50       -51.8549   2.0000                                         
     2  0  0.50        -2.8742   1.0000                                         
     2  1  0.50        -1.3606   0.0000                                         
     3  2  1.50        -1.3606   0.0000                                         
   Description                                                                  
     l       E           TYP  RCUT    TYP  RCUT                                 
     0    -51.8548813     23  1.400                                             
     0     -2.8742052     23  1.700                                             
     1     -1.3605826     23  1.400                                             
     2     -1.3605826     23  1.400                                             
  local pseudopotential read in
  atomic valenz-charges read in
  non local Contribution for L=           0  read in
    real space projection operators read in
  non local Contribution for L=           0  read in
    real space projection operators read in
  non local Contribution for L=           1  read in
    real space projection operators read in
    PAW grid and wavefunctions read in
 
   number of l-projection  operators is LMAX  =           3
   number of lm-projection operators is LMMAX =           5
 
 POTCAR:    PAW_PBE Ti_pv 07Sep2000               
   VRHFIN =Ti: d3 s1                                                            
   LEXCH  = PE                                                                  
   EATOM  =  1042.5995 eV,   76.6289 Ry                                         
                                                                                
   TITEL  = PAW_PBE Ti_pv 07Sep2000                                             
   LULTRA =        F    use ultrasoft PP ?                                      
   IUNSCR =        1    unscreen: 0-lin 1-nonlin 2-no                           
   RPACOR =    2.200    partial core radius                                     
   POMASS =   47.880; ZVAL   =   10.000    mass and valenz                      
   RCORE  =    2.500    outmost cutoff radius                                   
   RWIGS  =    2.500; RWIGS  =    1.323    wigner-seitz radius (au A)           
   ENMAX  =  222.335; ENMIN  =  166.751 eV                                      
   RCLOC  =    1.701    cutoff for local pot                                    
   LCOR   =        T    correct aug charges                                     
   LPAW   =        T    paw PP                                                  
   EAUG   =  482.848                                                            
   DEXC   =    0.000                                                            
   RMAX   =    2.564    core radius for proj-oper                               
   RAUG   =    1.300    factor for augmentation sphere                          
   RDEP   =    2.538    radius for radial grids                                 
   RDEPT  =    1.952    core radius for aug-charge                              
                                                                                
   Atomic configuration                                                         
    8 entries                                                                   
     n  l   j            E        occ.                                          
     1  0  0.50     -4865.3608   2.0000                                         
     2  0  0.50      -533.1368   2.0000                                         
     2  1  1.50      -440.5031   6.0000                                         
     3  0  0.50       -59.3186   2.0000                                         
     3  1  1.50       -35.7012   6.0000                                         
     3  2  2.50        -1.9157   3.0000                                         
     4  0  0.50        -3.7291   1.0000                                         
     4  3  2.50        -1.3606   0.0000                                         
   Description                                                                  
     l       E           TYP  RCUT    TYP  RCUT                                 
     1    -35.7012140     23  2.300                                             
     1     -1.3605826     23  2.300                                             
     2     -1.9156996     23  2.500                                             
     2     -0.4063033     23  2.500                                             
     0     -3.7290856     23  2.500                                             
     0     20.4087390     23  2.500                                             
  local pseudopotential read in
  partial core-charges read in
  partial kinetic energy density read in
  atomic valenz-charges read in
  non local Contribution for L=           1  read in
    real space projection operators read in
  non local Contribution for L=           1  read in
    real space projection operators read in
  non local Contribution for L=           2  read in
    real space projection operators read in
  non local Contribution for L=           2  read in
    real space projection operators read in
  non local Contribution for L=           0  read in
    real space projection operators read in
  non local Contribution for L=           0  read in
    real space projection operators read in
    PAW grid and wavefunctions read in
 
   number of l-projection  operators is LMAX  =           6
   number of lm-projection operators is LMMAX =          18
 
 POTCAR:    PAW_PBE O 08Apr2002                   
   VRHFIN =O: s2p4                                                              
   LEXCH  = PE                                                                  
   EATOM  =   432.3788 eV,   31.7789 Ry                                         
                                                                                
   TITEL  = PAW_PBE O 08Apr2002                                                 
   LULTRA =        F    use ultrasoft PP ?                                      
   IUNSCR =        1    unscreen: 0-lin 1-nonlin 2-no                           
   RPACOR =    1.200    partial core radius                                     
   POMASS =   16.000; ZVAL   =    6.000    mass and valenz                      
   RCORE  =    1.520    outmost cutoff radius                                   
   RWIGS  =    1.550; RWIGS  =    0.820    wigner-seitz radius (au A)           
   ENMAX  =  400.000; ENMIN  =  300.000 eV                                      
   ICORE  =        2    local potential                                         
   LCOR   =        T    correct aug charges                                     
   LPAW   =        T    paw PP                                                  
   EAUG   =  605.392                                                            
   DEXC   =    0.000                                                            
   RMAX   =    1.553    core radius for proj-oper                               
   RAUG   =    1.300    factor for augmentation sphere                          
   RDEP   =    1.550    radius for radial grids                                 
   RDEPT  =    1.329    core radius for aug-charge                              
                                                                                
   Atomic configuration                                                         
    4 entries                                                                   
     n  l   j            E        occ.                                          
     1  0  0.50      -514.6923   2.0000                                         
     2  0  0.50       -23.9615   2.0000                                         
     2  1  0.50        -9.0305   4.0000                                         
     3  2  1.50        -9.5241   0.0000                                         
   Description                                                                  
     l       E           TYP  RCUT    TYP  RCUT                                 
     0    -23.9615318     23  1.200                                             
     0     -9.5240782     23  1.200                                             
     1     -9.0304911     23  1.520                                             
     1      8.1634956     23  1.520                                             
     2     -9.5240782      7  1.500                                             
  local pseudopotential read in
  partial core-charges read in
  partial kinetic energy density read in
  kinetic energy density of atom read in
  atomic valenz-charges read in
  non local Contribution for L=           0  read in
    real space projection operators read in
  non local Contribution for L=           0  read in
    real space projection operators read in
  non local Contribution for L=           1  read in
    real space projection operators read in
  non local Contribution for L=           1  read in
    real space projection operators read in
    PAW grid and wavefunctions read in
 
   number of l-projection  operators is LMAX  =           4
   number of lm-projection operators is LMMAX =           8
 
 POTCAR:    PAW_PBE F 08Apr2002                   
   VRHFIN =F: s2p5                                                              
   LEXCH  = PE                                                                  
   EATOM  =   659.6475 eV,   48.4827 Ry                                         
                                                                                
   TITEL  = PAW_PBE F 08Apr2002                                                 
   LULTRA =        F    use ultrasoft PP ?                                      
   IUNSCR =        1    unscreen: 0-lin 1-nonlin 2-no                           
   RPACOR =    1.200    partial core radius                                     
   POMASS =   18.998; ZVAL   =    7.000    mass and valenz                      
   RCORE  =    1.520    outmost cutoff radius                                   
   RWIGS  =    1.500; RWIGS  =    0.794    wigner-seitz radius (au A)           
   ENMAX  =  400.000; ENMIN  =  300.000 eV                                      
   ICORE  =        2    local potential                                         
   LCOR   =        T    correct aug charges                                     
   LPAW   =        T    paw PP                                                  
   EAUG   =  613.614                                                            
   RMAX   =    1.555    core radius for proj-oper                               
   RAUG   =    1.300    factor for augmentation sphere                          
   RDEP   =    1.539    radius for radial grids                                 
   RDEPT  =    1.299    core radius for aug-charge                              
                                                                                
   Atomic configuration                                                         
    4 entries                                                                   
     n  l   j            E        occ.                                          
     1  0  0.50      -663.3661   2.0000                                         
     2  0  0.50       -29.8995   2.0000                                         
     2  1  0.50       -11.1114   5.0000                                         
     3  2  1.50       -10.8847   0.0000                                         
   Description                                                                  
     l       E           TYP  RCUT    TYP  RCUT                                 
     0    -29.8995018     23  1.200                                             
     0     -9.5240782     23  1.200                                             
     1    -11.1113914     23  1.520                                             
     1      1.3605826     23  1.520                                             
     2    -10.8846608      7  1.500                                             
  local pseudopotential read in
  partial core-charges read in
  partial kinetic energy density read in
  atomic valenz-charges read in
  non local Contribution for L=           0  read in
    real space projection operators read in
  non local Contribution for L=           0  read in
    real space projection operators read in
  non local Contribution for L=           1  read in
    real space projection operators read in
  non local Contribution for L=           1  read in
    real space projection operators read in
    PAW grid and wavefunctions read in
 
   number of l-projection  operators is LMAX  =           4
   number of lm-projection operators is LMMAX =           8
 
 Optimization of the real space projectors (new method)

 maximal supplied QI-value         = 22.11
 optimisation between [QCUT,QGAM] = [ 11.28, 22.77] = [ 35.61,145.23] Ry 
 Optimized for a Real-space Cutoff    1.31 Angstroem

   l    n(q)    QCUT    max X(q) W(low)/X(q) W(high)/X(q)  e(spline) 
   0      9    11.276    10.506    0.19E-04    0.17E-04    0.32E-07
   0      9    11.276     8.367    0.38E-04    0.40E-04    0.65E-07
   1      8    11.276     8.983    0.55E-04    0.98E-04    0.20E-06
 Optimization of the real space projectors (new method)

 maximal supplied QI-value         = 15.12
 optimisation between [QCUT,QGAM] = [ 11.34, 22.83] = [ 36.00,145.93] Ry 
 Optimized for a Real-space Cutoff    1.56 Angstroem

   l    n(q)    QCUT    max X(q) W(low)/X(q) W(high)/X(q)  e(spline) 
   1     10    11.338     4.216    0.27E-04    0.12E-04    0.66E-07
   1     10    11.338     5.422    0.81E-04    0.24E-04    0.19E-06
   2     10    11.338    72.084    0.64E-04    0.21E-03    0.51E-06
   2     10    11.338    65.965    0.63E-04    0.21E-03    0.50E-06
   0     11    11.338    41.531    0.33E-04    0.54E-04    0.13E-06
   0     11    11.338    16.290    0.26E-04    0.41E-04    0.11E-06
 Optimization of the real space projectors (new method)

 maximal supplied QI-value         = 24.76
 optimisation between [QCUT,QGAM] = [ 11.39, 22.77] = [ 36.31,145.25] Ry 
 Optimized for a Real-space Cutoff    1.20 Angstroem

   l    n(q)    QCUT    max X(q) W(low)/X(q) W(high)/X(q)  e(spline) 
   0      8    11.387    20.381    0.89E-04    0.31E-03    0.27E-06
   0      8    11.387    15.268    0.93E-04    0.32E-03    0.29E-06
   1      8    11.387     5.964    0.53E-04    0.28E-03    0.29E-06
   1      8    11.387     5.382    0.37E-04    0.22E-03    0.26E-06
 Optimization of the real space projectors (new method)

 maximal supplied QI-value         = 24.76
 optimisation between [QCUT,QGAM] = [ 11.39, 22.77] = [ 36.31,145.25] Ry 
 Optimized for a Real-space Cutoff    1.20 Angstroem

   l    n(q)    QCUT    max X(q) W(low)/X(q) W(high)/X(q)  e(spline) 
   0      8    11.387    14.049    0.69E-04    0.23E-03    0.18E-06
   0      8    11.387     8.945    0.88E-04    0.30E-03    0.26E-06
   1      8    11.387     7.086    0.62E-04    0.27E-03    0.27E-06
   1      8    11.387     6.747    0.46E-04    0.23E-03    0.25E-06

 ----------------------------------------------------------------------------- 
|                                                                             |
|  ADVICE TO THIS USER RUNNING 'VASP/VAMP'   (HEAR YOUR MASTER'S VOICE ...):  |
|                                                                             |
|      You enforced a specific xc-type in the INCAR file,                     |
|      a different type was found on the POTCAR file                          |
|          I HOPE YOU KNOW, WHAT YOU ARE  DOING                               |
|                                                                             |
 ----------------------------------------------------------------------------- 

  PAW_PBE Li_sv 10Sep2004               :
 energy of atom  1       EATOM= -202.7858
 kinetic energy error for atom=    0.0143 (will be added to EATOM!!)
  PAW_PBE Ti_pv 07Sep2000               :
 energy of atom  2       EATOM=-1042.5995
 kinetic energy error for atom=    0.0024 (will be added to EATOM!!)
  PAW_PBE O 08Apr2002                   :
 energy of atom  3       EATOM= -432.3788
 kinetic energy error for atom=    0.0224 (will be added to EATOM!!)
  PAW_PBE F 08Apr2002                   :
 energy of atom  4       EATOM= -659.6475
 kinetic energy error for atom=    0.0354 (will be added to EATOM!!)
 
 
 POSCAR: config 61                               
  positions in direct lattice
  velocities in cartesian coordinates
 exchange correlation table for  LEXCH =       14
   RHO(1)=    0.500       N(1)  =     2000
   RHO(2)=  100.500       N(2)  =     4000

 VTST: version 3.2, (02/03/18)

 CHAIN: initializing optimizer
 
 OPT: Using VASP QUASI-newton optimizer
 CHAIN: Read ICHAIN            0
 
 POSCAR: config 61                               
  positions in direct lattice
  velocities in cartesian coordinates
 


--------------------------------------------------------------------------------------------------------


 ion  position               nearest neighbor table
   1  0.946  0.878  0.121- 130 1.94  71 1.97 118 1.98 227 2.14  20 2.80   2 2.82
   2  0.996  0.995  0.990- 118 1.82  68 1.86 103 1.92 171 2.01 212 2.03 130 2.14   1 2.82
   3  0.999  0.992  0.495- 119 1.80  67 1.83 172 1.94 193 1.96 131 1.98 213 2.08
   4  0.006  0.493  0.997-  89 1.83 117 1.85 138 1.93 132 1.98 214 2.02 194 2.03
   5  0.994  0.503  0.507-  66 1.82 104 1.84 215 1.93 223 2.00 173 2.01 137 2.03
   6  0.495  0.994  0.000- 101 1.84 121 1.84 140 1.95 133 1.97 174 2.02 216 2.02
   7  0.501  0.008  0.500- 112 1.77 191 1.91 134 1.91 139 1.92 175 1.93 225 2.02
   8  0.505  0.495  0.996-  70 1.88 120 1.88  90 1.89 192 2.03 135 2.04 217 2.05
   9  0.492  0.499  0.495- 102 1.81  69 1.86 224 1.98 218 1.98 136 2.01 176 2.06
  10  0.007  0.006  0.260-  91 1.82  67 1.83 219 1.92 227 1.99 130 2.03 197 2.08
  11  0.001  0.008  0.754-  68 1.79 113 1.83 177 1.94 198 1.98 131 2.03 228 2.04
  12  0.993  0.493  0.251- 107 1.82 122 1.86 137 1.93 132 1.96 220 2.00 178 2.02
  13  0.993  0.499  0.741- 108 1.82  66 1.83 226 1.93 221 1.96 138 2.02 179 2.04
  14  0.505  0.009  0.251- 114 1.82  92 1.84 133 1.92 139 1.97 195 2.00 231 2.04
  15  0.493  0.005  0.752- 105 1.81 115 1.84 140 1.93 134 2.00 232 2.01 180 2.03
  16  0.493  0.497  0.257-  69 1.82 106 1.84 229 1.96 222 2.00 135 2.02 181 2.05
  17  0.501  0.504  0.759-  70 1.80 116 1.87 182 1.95 196 1.97 230 2.04 136 2.07
  18  0.996  0.256  0.001- 117 1.82 110 1.87 141 1.96 146 1.96 183 2.00 212 2.01
  19  0.998  0.248  0.491-  74 1.78 213 1.91 184 1.93 202 1.93 223 1.94 142 2.01
  20  0.999  0.753  0.000- 118 1.93 214 2.01  71 2.02 185 2.02 203 2.03 148 2.05   1 2.80
  21  0.997  0.756  0.505-  72 1.82 119 1.84 204 1.95 186 1.96 147 2.00 215 2.02
  22  0.495  0.258  0.001- 120 1.80 109 1.85 150 1.96 143 1.98 187 2.03 216 2.06
  23  0.508  0.246  0.499-  93 1.80 112 1.90 144 1.92 149 1.94 224 1.97 199 2.00
  24  0.508  0.756  1.000-  94 1.82 121 1.85 152 1.94 145 1.99 200 2.01 217 2.02
  25  0.506  0.753  0.510-  73 1.79  95 1.83 218 1.96 225 1.96 201 2.00 151 2.07
  26  1.000  0.258  0.255- 122 1.79  74 1.88 209 1.95 188 1.95 141 1.99 219 2.03
  27  0.007  0.243  0.747- 113 1.81  96 1.82 142 1.96 146 1.97 226 2.04 210 2.05
  28  0.005  0.747  0.244-  71 1.77  97 1.86 220 1.93 227 2.03 147 2.04 211 2.08
  29  0.993  0.751  0.742- 111 1.83  72 1.84 228 1.94 148 1.96 221 1.98 189 2.03
  30  0.508  0.242  0.252-  98 1.82 114 1.83 143 1.92 149 1.96 229 2.01 205 2.02
  31  0.507  0.243  0.751-  99 1.84 115 1.84 150 1.93 144 1.97 230 2.02 206 2.02
  32  0.505  0.752  0.252- 100 1.79 151 1.92 231 1.94 145 1.94 222 1.94 207 1.98
  33  0.501  0.742  0.744- 116 1.81  73 1.84 190 1.93 208 1.96 152 2.02 232 2.06
  34  0.257  0.998  0.006- 101 1.85  75 1.85 246 1.93 233 1.96 171 2.03 157 2.03
  35  0.250  0.994  0.506- 128 1.82  76 1.84 172 1.95 191 1.99 156 2.02 234 2.03
  36  0.244  0.508  0.997- 123 1.81  89 1.85 159 1.93 153 1.97 192 2.02 245 2.04
  37  0.254  0.494  0.507-  77 1.85 102 1.88 127 1.88 173 2.04 235 2.04 158 2.05
  38  0.757  0.000  0.995- 103 1.78  81 1.87 236 1.95 249 1.96 174 2.05 154 2.06
  39  0.750  0.007  0.495-  80 1.83 124 1.83 193 1.93 155 1.99 175 1.99 250 2.03
  40  0.742  0.501  0.005-  90 1.80  78 1.87 237 1.95 247 1.96 161 2.03 194 2.05
  41  0.755  0.498  0.505-  79 1.84 104 1.85 248 1.96 238 1.98 176 2.01 160 2.02
  42  0.245  0.002  0.243-  75 1.82  91 1.86 239 1.93 252 1.96 156 2.04 195 2.04
  43  0.257  0.998  0.744-  76 1.83 105 1.84 253 1.92 240 1.97 177 2.02 157 2.03
  44  0.255  0.492  0.252- 129 1.83 106 1.83 158 1.93 153 1.97 241 2.03 178 2.04
  45  0.247  0.506  0.741-  77 1.79 125 1.83 179 1.95 196 1.97 251 2.03 159 2.06
  46  0.744  0.001  0.257-  92 1.84  80 1.85 256 1.95 242 1.95 154 2.00 197 2.01
  47  0.748  0.007  0.756-  81 1.82 126 1.83 180 1.94 198 1.97 257 2.03 155 2.06
  48  0.755  0.499  0.243-  78 1.81 107 1.86 243 1.95 254 1.96 181 2.02 160 2.05
  49  0.757  0.498  0.743- 108 1.83  79 1.84 255 1.93 244 1.97 182 2.03 161 2.03
  50  0.257  0.251  0.006- 109 1.83  82 1.86 245 1.93 233 1.97 168 2.02 183 2.05
  51  0.253  0.257  0.505- 127 1.80  83 1.85 199 1.96 184 2.01 167 2.03 234 2.05
  52  0.252  0.742  0.993- 123 1.82  86 1.84 185 1.92 200 1.94 162 2.04 246 2.05
  53  0.251  0.755  0.492-  85 1.82 128 1.87 201 1.95 186 1.97 235 2.00 163 2.04
  54  0.757  0.251  0.007- 110 1.81  84 1.86 236 1.94 247 1.94 170 2.03 187 2.03
  55  0.742  0.243  0.498- 124 1.82  93 1.84 169 1.93 164 1.95 248 2.01 202 2.03
  56  0.741  0.749  0.994-  94 1.83  88 1.83 237 1.95 203 1.95 249 1.96 165 2.06
  57  0.741  0.753  0.495-  95 1.81  87 1.85 250 1.95 238 1.96 166 2.00 204 2.03
  58  0.251  0.258  0.244- 129 1.82  82 1.83 205 1.96 188 2.00 167 2.03 239 2.04
  59  0.244  0.252  0.744-  83 1.83  96 1.85 251 1.93 240 1.97 168 2.03 206 2.04
  60  0.243  0.748  0.255-  97 1.81  85 1.85 241 1.94 252 1.98 162 2.02 207 2.07
  61  0.248  0.742  0.756- 125 1.82  86 1.83 189 1.93 208 1.98 163 2.04 253 2.04
  62  0.742  0.251  0.242-  84 1.79  98 1.83 254 1.93 242 1.95 209 2.04 169 2.06
  63  0.744  0.242  0.751- 126 1.82  99 1.84 170 1.94 164 2.00 210 2.02 255 2.04
  64  0.743  0.750  0.258-  87 1.81 100 1.89 243 1.93 256 1.95 211 1.97 165 2.02
  65  0.757  0.751  0.757- 111 1.82  88 1.83 257 1.93 244 1.97 190 2.03 166 2.05
  66  0.008  0.501  0.624-   5 1.82  13 1.83
  67  0.993  0.009  0.377-  10 1.83   3 1.83
  68  0.998  0.002  0.870-  11 1.79   2 1.86
  69  0.499  0.493  0.375-  16 1.82   9 1.86
  70  0.494  0.496  0.875-  17 1.80   8 1.88
  71  0.989  0.758  0.131-  28 1.77   1 1.97  20 2.02
  72  0.998  0.745  0.622-  21 1.82  29 1.84
  73  0.497  0.752  0.625-  25 1.79  33 1.84
  74  0.994  0.245  0.376-  19 1.78  26 1.88
  75  0.253  0.003  0.125-  42 1.82  34 1.85
  76  0.253  0.004  0.625-  43 1.83  35 1.84
  77  0.239  0.495  0.626-  45 1.79  37 1.85
  78  0.750  0.492  0.126-  48 1.81  40 1.87
  79  0.746  0.494  0.624-  49 1.84  41 1.84
  80  0.752  0.000  0.377-  39 1.83  46 1.85
  81  0.748  1.000  0.874-  47 1.82  38 1.87
  82  0.245  0.249  0.126-  58 1.83  50 1.86
  83  0.251  0.249  0.625-  59 1.83  51 1.85
  84  0.742  0.259  0.126-  62 1.79  54 1.86
  85  0.252  0.746  0.375-  53 1.82  60 1.85
  86  0.247  0.752  0.875-  61 1.83  52 1.84
  87  0.746  0.752  0.375-  64 1.81  57 1.85
  88  0.744  0.751  0.875-  65 1.83  56 1.83
  89  0.125  0.506  0.994-   4 1.83  36 1.85
  90  0.626  0.510  0.998-  40 1.80   8 1.89
  91  0.125  0.004  0.253-  10 1.82  42 1.86
  92  0.624  0.003  0.252-  14 1.84  46 1.84
  93  0.624  0.259  0.493-  23 1.80  55 1.84
  94  0.624  0.738  0.007-  24 1.82  56 1.83
  95  0.624  0.764  0.501-  57 1.81  25 1.83
  96  0.125  0.252  0.750-  27 1.82  59 1.85
  97  0.126  0.751  0.248-  60 1.81  28 1.86
  98  0.625  0.243  0.263-  30 1.82  62 1.83
  99  0.626  0.253  0.749-  31 1.84  63 1.84
 100  0.621  0.753  0.248-  32 1.79  64 1.89
 101  0.376  0.998  0.994-   6 1.84  34 1.85
 102  0.375  0.507  0.504-   9 1.81  37 1.88
 103  0.872  0.998  0.004-  38 1.78   2 1.92
 104  0.875  0.504  0.499-   5 1.84  41 1.85
 105  0.376  0.997  0.755-  15 1.81  43 1.84
 106  0.374  0.495  0.249-  44 1.83  16 1.84
 107  0.875  0.496  0.252-  12 1.82  48 1.86
 108  0.875  0.508  0.746-  13 1.82  49 1.83
 109  0.376  0.251  0.004-  50 1.83  22 1.85
 110  0.874  0.251  0.005-  54 1.81  18 1.87
 111  0.875  0.745  0.752-  65 1.82  29 1.83
 112  0.512  0.123  0.494-   7 1.77  23 1.90
 113  0.997  0.126  0.742-  27 1.81  11 1.83
 114  0.493  0.125  0.264-  14 1.82  30 1.83
 115  0.502  0.124  0.749-  15 1.84  31 1.84
 116  0.502  0.625  0.751-  33 1.81  17 1.87
 117  0.004  0.374  0.003-  18 1.82   4 1.85
 118  1.000  0.878  0.005-   2 1.82  20 1.93   1 1.98
 119  0.993  0.875  0.498-   3 1.80  21 1.84
 120  0.506  0.374  0.008-  22 1.80   8 1.88
 121  0.507  0.875  0.006-   6 1.84  24 1.85
 122  0.008  0.374  0.248-  26 1.79  12 1.86
 123  0.260  0.624  0.002-  36 1.81  52 1.82
 124  0.740  0.125  0.505-  55 1.82  39 1.83
 125  0.248  0.624  0.749-  61 1.82  45 1.83
 126  0.751  0.125  0.744-  63 1.82  47 1.83
 127  0.254  0.373  0.493-  51 1.80  37 1.88
 128  0.254  0.876  0.499-  35 1.82  53 1.87
 129  0.241  0.374  0.256-  58 1.82  44 1.83
 130  0.995  0.993  0.129-   1 1.94  10 2.03   2 2.14
 131  0.005  0.998  0.623-   3 1.98  11 2.03
 132  0.001  0.505  0.125-  12 1.96   4 1.98
 133  0.495  0.009  0.127-  14 1.92   6 1.97
 134  0.499  0.997  0.623-   7 1.91  15 2.00
 135  0.503  0.508  0.128-  16 2.02   8 2.04
 136  0.508  0.501  0.625-   9 2.01  17 2.07
 137  0.003  0.497  0.376-  12 1.93   5 2.03
 138  0.995  0.498  0.873-   4 1.93  13 2.02
 139  0.501  0.988  0.377-   7 1.92  14 1.97
 140  0.513  0.998  0.875-  15 1.93   6 1.95
 141  0.008  0.247  0.127-  18 1.96  26 1.99
 142  0.000  0.259  0.621-  27 1.96  19 2.01
 143  0.509  0.238  0.127-  30 1.92  22 1.98
 144  0.498  0.246  0.623-  23 1.92  31 1.97
 145  0.491  0.745  0.127-  32 1.94  24 1.99
 146  0.995  0.248  0.874-  18 1.96  27 1.97
 147  0.997  0.750  0.376-  21 2.00  28 2.04
 148  0.007  0.752  0.868-  29 1.96  20 2.05
 149  0.490  0.263  0.376-  23 1.94  30 1.96
 150  0.499  0.253  0.875-  31 1.93  22 1.96
 151  0.496  0.756  0.376-  32 1.92  25 2.07
 152  0.503  0.754  0.874-  24 1.94  33 2.02
 153  0.244  0.494  0.125-  44 1.97  36 1.97
 154  0.748  0.002  0.128-  46 2.00  38 2.06
 155  0.744  0.995  0.623-  39 1.99  47 2.06
 156  0.253  0.002  0.375-  35 2.02  42 2.04
 157  0.243  0.995  0.874-  43 2.03  34 2.03
 158  0.247  0.511  0.375-  44 1.93  37 2.05
 159  0.259  0.497  0.873-  36 1.93  45 2.06
 160  0.746  0.506  0.375-  41 2.02  48 2.05
 161  0.753  0.506  0.874-  40 2.03  49 2.03
 162  0.258  0.755  0.125-  60 2.02  52 2.04
 163  0.253  0.751  0.625-  61 2.04  53 2.04
 164  0.751  0.261  0.623-  55 1.95  63 2.00
 165  0.754  0.750  0.127-  64 2.02  56 2.06
 166  0.750  0.749  0.625-  57 2.00  65 2.05
 167  0.254  0.243  0.374-  58 2.03  51 2.03
 168  0.253  0.251  0.875-  50 2.02  59 2.03
 169  0.763  0.243  0.374-  55 1.93  62 2.06
 170  0.753  0.245  0.876-  63 1.94  54 2.03
 171  0.126  0.005  0.002-   2 2.01  34 2.03
 172  0.124  0.001  0.497-   3 1.94  35 1.95
 173  0.123  0.497  0.492-   5 2.01  37 2.04
 174  0.625  0.006  0.007-   6 2.02  38 2.05
 175  0.624  0.982  0.501-   7 1.93  39 1.99
 176  0.625  0.492  0.498-  41 2.01   9 2.06
 177  0.126  1.000  0.748-  11 1.94  43 2.02
 178  0.124  0.508  0.249-  12 2.02  44 2.04
 179  0.123  0.493  0.762-  45 1.95  13 2.04
 180  0.624  0.995  0.743-  47 1.94  15 2.03
 181  0.625  0.501  0.251-  48 2.02  16 2.05
 182  0.627  0.493  0.756-  17 1.95  49 2.03
 183  0.125  0.246  0.994-  18 2.00  50 2.05
 184  0.123  0.249  0.497-  19 1.93  51 2.01
 185  0.129  0.742  0.007-  52 1.92  20 2.02
 186  0.124  0.753  0.499-  21 1.96  53 1.97
 187  0.626  0.246  0.994-  54 2.03  22 2.03
 188  0.124  0.235  0.257-  26 1.95  58 2.00
 189  0.124  0.754  0.743-  61 1.93  29 2.03
 190  0.626  0.755  0.746-  33 1.93  65 2.03
 191  0.377  0.010  0.497-   7 1.91  35 1.99
 192  0.374  0.492  0.008-  36 2.02   8 2.03
 193  0.874  0.010  0.511-  39 1.93   3 1.96
 194  0.875  0.494  0.999-   4 2.03  40 2.05
 195  0.377  0.995  0.255-  14 2.00  42 2.04
 196  0.375  0.498  0.741-  17 1.97  45 1.97
 197  0.873  0.996  0.246-  46 2.01  10 2.08
 198  0.874  0.994  0.739-  47 1.97  11 1.98
 199  0.379  0.240  0.499-  51 1.96  23 2.00
 200  0.377  0.760  0.997-  52 1.94  24 2.01
 201  0.377  0.741  0.498-  53 1.95  25 2.00
 202  0.874  0.246  0.506-  19 1.93  55 2.03
 203  0.867  0.762  0.999-  56 1.95  20 2.03
 204  0.872  0.740  0.499-  21 1.95  57 2.03
 205  0.378  0.258  0.246-  58 1.96  30 2.02
 206  0.376  0.249  0.751-  31 2.02  59 2.04
 207  0.377  0.750  0.251-  32 1.98  60 2.07
 208  0.375  0.755  0.753-  33 1.96  61 1.98
 209  0.874  0.257  0.244-  26 1.95  62 2.04
 210  0.874  0.254  0.746-  63 2.02  27 2.05
 211  0.871  0.750  0.256-  64 1.97  28 2.08
 212  0.000  0.126  0.004-  18 2.01   2 2.03
 213  0.001  0.126  0.510-  19 1.91   3 2.08
 214  0.990  0.623  0.997-  20 2.01   4 2.02
 215  0.005  0.626  0.492-   5 1.93  21 2.02
 216  0.502  0.125  0.996-   6 2.02  22 2.06
 217  0.487  0.627  0.999-  24 2.02   8 2.05
 218  0.510  0.627  0.496-  25 1.96   9 1.98
 219  0.989  0.128  0.243-  10 1.92  26 2.03
 220  0.997  0.623  0.253-  28 1.93  12 2.00
 221  0.010  0.625  0.754-  13 1.96  29 1.98
 222  0.499  0.626  0.257-  32 1.94  16 2.00
 223  0.998  0.374  0.497-  19 1.94   5 2.00
 224  0.491  0.372  0.508-  23 1.97   9 1.98
 225  0.486  0.878  0.501-  25 1.96   7 2.02
 226  0.995  0.374  0.751-  13 1.93  27 2.04
 227  0.992  0.878  0.252-  10 1.99  28 2.03   1 2.14
 228  1.000  0.876  0.743-  29 1.94  11 2.04
 229  0.505  0.372  0.240-  16 1.96  30 2.01
 230  0.496  0.373  0.744-  31 2.02  17 2.04
 231  0.497  0.877  0.245-  32 1.94  14 2.04
 232  0.502  0.875  0.751-  15 2.01  33 2.06
 233  0.249  0.125  0.994-  34 1.96  50 1.97
 234  0.247  0.124  0.497-  35 2.03  51 2.05
 235  0.243  0.626  0.505-  53 2.00  37 2.04
 236  0.747  0.126  0.004-  54 1.94  38 1.95
 237  0.765  0.626  0.005-  56 1.95  40 1.95
 238  0.740  0.626  0.503-  57 1.96  41 1.98
 239  0.260  0.126  0.253-  42 1.93  58 2.04
 240  0.250  0.124  0.757-  43 1.97  59 1.97
 241  0.253  0.623  0.241-  60 1.94  44 2.03
 242  0.760  0.126  0.248-  62 1.95  46 1.95
 243  0.748  0.625  0.247-  64 1.93  48 1.95
 244  0.739  0.625  0.747-  65 1.97  49 1.97
 245  0.245  0.376  0.997-  50 1.93  36 2.04
 246  0.243  0.874  0.002-  34 1.93  52 2.05
 247  0.744  0.375  0.988-  54 1.94  40 1.96
 248  0.757  0.372  0.490-  41 1.96  55 2.01
 249  0.738  0.875  0.008-  56 1.96  38 1.96
 250  0.764  0.877  0.503-  57 1.95  39 2.03
 251  0.254  0.376  0.756-  59 1.93  45 2.03
 252  0.253  0.876  0.252-  42 1.96  60 1.98
 253  0.247  0.874  0.747-  43 1.92  61 2.04
 254  0.746  0.374  0.265-  62 1.93  48 1.96
 255  0.755  0.374  0.758-  49 1.93  63 2.04
 256  0.752  0.875  0.245-  46 1.95  64 1.95
 257  0.751  0.875  0.746-  65 1.93  47 2.03
 

IMPORTANT INFORMATION: All symmetrisations will be switched off!
NOSYMM: (Re-)initialisation of all symmetry stuff for point group C_1.

 
 
 KPOINTS: Title                                   

Automatic generation of k-mesh.
Space group operators:
 irot       det(A)        alpha          n_x          n_y          n_z        tau_x        tau_y        tau_z
    1     1.000000     0.000001     1.000000     0.000000     0.000000     0.000000     0.000000     0.000000
 
 Subroutine IBZKPT returns following result:
 ===========================================
 
 Found      4 irreducible k-points:
 
 Following reciprocal coordinates:
            Coordinates               Weight
  0.250000  0.250000  0.250000      2.000000
 -0.250000  0.250000  0.250000      2.000000
  0.250000 -0.250000  0.250000      2.000000
 -0.250000 -0.250000  0.250000      2.000000
 
 Following cartesian coordinates:
            Coordinates               Weight
  0.016206  0.016206  0.016206      2.000000
 -0.016206  0.016206  0.016206      2.000000
  0.016206 -0.016206  0.016206      2.000000
 -0.016206 -0.016206  0.016206      2.000000
 


--------------------------------------------------------------------------------------------------------




 Dimension of arrays:
   k-points           NKPTS =      4   k-points in BZ     NKDIM =      4   number of bands    NBANDS=   1164
   number of dos      NEDOS =   3001   number of ions     NIONS =    257
   non local maximal  LDIM  =      6   non local SUM 2l+1 LMDIM =     18
   total plane-waves  NPLWV = ******
   max r-space proj   IRMAX =   7595   max aug-charges    IRDMAX= 146383
   dimension x,y,z NGX =   120 NGY =  120 NGZ =  120
   dimension x,y,z NGXF=   240 NGYF=  240 NGZF=  240
   support grid    NGXF=   480 NGYF=  480 NGZF=  480
   ions per type =               1  64  64 128
   NGX,Y,Z   is equivalent  to a cutoff of  12.93, 12.93, 12.93 a.u.
   NGXF,Y,Z  is equivalent  to a cutoff of  25.86, 25.86, 25.86 a.u.

 SYSTEM =  LTO                                     
 POSCAR =  config 61                               

 Startparameter for this run:
   NWRITE =      2    write-flag & timer
   PREC   = accura    normal or accurate (medium, high low for compatibility)
   ISTART =      1    job   : 0-new  1-cont  2-samecut
   ICHARG =      0    charge: 1-file 2-atom 10-const
   ISPIN  =      2    spin polarized calculation?
   LNONCOLLINEAR =      F non collinear calculations
   LSORBIT =      F    spin-orbit coupling
   INIWAV =      1    electr: 0-lowe 1-rand  2-diag
   LASPH  =      T    aspherical Exc in radial PAW
   METAGGA=      F    non-selfconsistent MetaGGA calc.

 Electronic Relaxation 1
   ENCUT  =  500.0 eV  36.75 Ry    6.06 a.u.  28.13 28.13 28.13*2*pi/ulx,y,z
   ENINI  =  500.0     initial cutoff
   ENAUG  =  628.9 eV  augmentation charge cutoff
   NELM   =     60;   NELMIN=  2; NELMDL=  0     # of ELM steps 
   EDIFF  = 0.1E-05   stopping-criterion for ELM
   LREAL  =      T    real-space projection
   NLSPLINE    = F    spline interpolate recip. space projectors
   LCOMPAT=      F    compatible to vasp.4.4
   GGA_COMPAT  = T    GGA compatible to vasp.4.4-vasp.4.6
   LMAXPAW     = -100 max onsite density
   LMAXMIX     =    4 max onsite mixed and CHGCAR
   VOSKOWN=      0    Vosko Wilk Nusair interpolation
   ROPT   =   -0.00010  -0.00010  -0.00010  -0.00010
 Ionic relaxation
   EDIFFG = -.5E-01   stopping-criterion for IOM
   NSW    =    100    number of steps for IOM
   NBLOCK =      1;   KBLOCK =    100    inner block; outer block 
   IBRION =      1    ionic relax: 0-MD 1-quasi-New 2-CG
   NFREE  =      0    steps in history (QN), initial steepest desc. (CG)
   ISIF   =      2    stress and relaxation
   IWAVPR =     11    prediction:  0-non 1-charg 2-wave 3-comb
   ISYM   =      0    0-nonsym 1-usesym 2-fastsym
   LCORR  =      T    Harris-Foulkes like correction to forces

   POTIM  = 0.5000    time-step for ionic-motion
   TEIN   =    0.0    initial temperature
   TEBEG  =    0.0;   TEEND  =   0.0 temperature during run
   SMASS  =  -3.00    Nose mass-parameter (am)
   estimated Nose-frequenzy (Omega)   =  0.10E-29 period in steps =****** mass=  -0.544E-26a.u.
   SCALEE = 1.0000    scale energy and forces
   NPACO  =    256;   APACO  = 16.0  distance and # of slots for P.C.
   PSTRESS=    0.0 pullay stress

  Mass of Ions in am
   POMASS =   7.01 47.88 16.00 19.00
  Ionic Valenz
   ZVAL   =   3.00 10.00  6.00  7.00
  Atomic Wigner-Seitz radii
   RWIGS  =  -1.00 -1.00 -1.00 -1.00
  virtual crystal weights 
   VCA    =   1.00  1.00  1.00  1.00
   NELECT =    1923.0000    total number of electrons
   NUPDOWN=       1.0000    fix difference up-down

 DOS related values:
   EMIN   =  10.00;   EMAX   =-10.00  energy-range for DOS
   EFERMI =   0.00
   ISMEAR =     0;   SIGMA  =   0.01  broadening in eV -4-tet -1-fermi 0-gaus

 Electronic relaxation 2 (details)
   IALGO  =     38    algorithm
   LDIAG  =      T    sub-space diagonalisation (order eigenvalues)
   LSUBROT=      F    optimize rotation matrix (better conditioning)
   TURBO    =      0    0=normal 1=particle mesh
   IRESTART =      0    0=no restart 2=restart with 2 vectors
   NREBOOT  =      0    no. of reboots
   NMIN     =      0    reboot dimension
   EREF     =   0.00    reference energy to select bands
   IMIX   =      4    mixing-type and parameters
     AMIX     =   0.40;   BMIX     =  1.00
     AMIX_MAG =   1.60;   BMIX_MAG =  1.00
     AMIN     =   0.10
     WC   =   100.;   INIMIX=   1;  MIXPRE=   1;  MAXMIX= -45

 Intra band minimization:
   WEIMIN = 0.0010     energy-eigenvalue tresh-hold
   EBREAK =  0.21E-09  absolut break condition
   DEPER  =   0.30     relativ break condition  

   TIME   =   0.40     timestep for ELM

  volume/ion in A,a.u.               =      14.28        96.39
  Fermi-wavevector in a.u.,A,eV,Ry     =   1.319690  2.493853 23.695660  1.741582
  Thomas-Fermi vector in A             =   2.449570
 
 Write flags
   LWAVE        =      T    write WAVECAR
   LDOWNSAMPLE  =      F    k-point downsampling of WAVECAR
   LCHARG       =      T    write CHGCAR
   LVTOT        =      F    write LOCPOT, total local potential
   LVHAR        =      F    write LOCPOT, Hartree potential only
   LELF         =      F    write electronic localiz. function (ELF)
   LORBIT       =     11    0 simple, 1 ext, 2 COOP (PROOUT), +10 PAW based schemes


 Dipole corrections
   LMONO  =      F    monopole corrections only (constant potential shift)
   LDIPOL =      F    correct potential (dipole corrections)
   IDIPOL =      0    1-x, 2-y, 3-z, 4-all directions 
   EPSILON=  1.0000000 bulk dielectric constant

 LDA+U is selected, type is set to LDAUTYPE =  2
   angular momentum for each species LDAUL =    -1    2   -1   -1
   U (eV)           for each species LDAUU =   0.0  4.2  0.0  0.0
   J (eV)           for each species LDAUJ =   0.0  0.0  0.0  0.0
 Exchange correlation treatment:
   GGA     =    PS    GGA type
   LEXCH   =    14    internal setting for exchange type
   VOSKOWN=      0    Vosko Wilk Nusair interpolation
   LHFCALC =     F    Hartree Fock is set to
   LHFONE  =     F    Hartree Fock one center treatment
   AEXX    =    0.0000 exact exchange contribution

 Linear response parameters
   LEPSILON=     F    determine dielectric tensor
   LRPA    =     F    only Hartree local field effects (RPA)
   LNABLA  =     F    use nabla operator in PAW spheres
   LVEL    =     F    velocity operator in full k-point grid
   LINTERFAST=   F  fast interpolation
   KINTER  =     0    interpolate to denser k-point grid
   CSHIFT  =0.1000    complex shift for real part using Kramers Kronig
   OMEGAMAX=  -1.0    maximum frequency
   DEG_THRESHOLD= 0.2000000E-02 threshold for treating states as degnerate
   RTIME   =   -0.100 relaxation time in fs
  (WPLASMAI=    0.000 imaginary part of plasma frequency in eV, 0.658/RTIME)
   DFIELD  = 0.0000000 0.0000000 0.0000000 field for delta impulse in time
 
 Orbital magnetization related:
   ORBITALMAG=     F  switch on orbital magnetization
   LCHIMAG   =     F  perturbation theory with respect to B field
   DQ        =  0.001000  dq finite difference perturbation B field
   LLRAUG    =     F  two centre corrections for induced B field



--------------------------------------------------------------------------------------------------------


 quasi-Newton-method for relaxation of ions
 charge density and potential will be updated during run
 spin polarized calculation
 Variant of blocked Davidson
 Davidson routine will perform the subspace rotation
 perform sub-space diagonalisation
    after iterative eigenvector-optimisation
 modified Broyden-mixing scheme, WC =      100.0
 initial mixing is a Kerker type mixing with AMIX =  0.4000 and BMIX =      1.0000
 Hartree-type preconditioning will be used
 using additional bands          202
 real space projection scheme for non local part
 use partial core corrections
 calculate Harris-corrections to forces 
   (improved forces if not selfconsistent)
 use gradient corrections 
 use of overlap-Matrix (Vanderbilt PP)
 Gauss-broadening in eV      SIGMA  =   0.01


--------------------------------------------------------------------------------------------------------


  energy-cutoff  :      500.00
  volume of cell :     3671.03
      direct lattice vectors                 reciprocal lattice vectors
    15.426331000  0.000000000  0.000000000     0.064824228  0.000000000  0.000000000
     0.000000000 15.426331000  0.000000000     0.000000000  0.064824228  0.000000000
     0.000000000  0.000000000 15.426331000     0.000000000  0.000000000  0.064824228

  length of vectors
    15.426331000 15.426331000 15.426331000     0.064824228  0.064824228  0.064824228


 
 old parameters found on file WAVECAR:
  energy-cutoff  :      500.00
  volume of cell :     3671.03
      direct lattice vectors                 reciprocal lattice vectors
    15.426331000  0.000000000  0.000000000     0.064824228  0.000000000  0.000000000
     0.000000000 15.426331000  0.000000000     0.000000000  0.064824228  0.000000000
     0.000000000  0.000000000 15.426331000     0.000000000  0.000000000  0.064824228

  length of vectors

 
 k-points in units of 2pi/SCALE and weight: Title                                   
   0.01620606  0.01620606  0.01620606       0.250
  -0.01620606  0.01620606  0.01620606       0.250
   0.01620606 -0.01620606  0.01620606       0.250
  -0.01620606 -0.01620606  0.01620606       0.250
 
 k-points in reciprocal lattice and weights: Title                                   
   0.25000000  0.25000000  0.25000000       0.250
  -0.25000000  0.25000000  0.25000000       0.250
   0.25000000 -0.25000000  0.25000000       0.250
  -0.25000000 -0.25000000  0.25000000       0.250
 
 position of ions in fractional coordinates (direct lattice) 
   0.94619861  0.87769736  0.12100148
   0.99622902  0.99502119  0.99046009
   0.99868181  0.99165535  0.49479362
   0.00645359  0.49340277  0.99712758
   0.99383087  0.50276823  0.50677196
   0.49480875  0.99374736  0.00028345
   0.50093157  0.00832402  0.49969854
   0.50454809  0.49536857  0.99619088
   0.49166147  0.49939828  0.49542199
   0.00688618  0.00567734  0.25969666
   0.00093388  0.00796306  0.75427248
   0.99335542  0.49317358  0.25108400
   0.99278980  0.49924042  0.74149350
   0.50516002  0.00866911  0.25103096
   0.49264442  0.00513139  0.75210769
   0.49256792  0.49665314  0.25748304
   0.50095493  0.50407529  0.75860952
   0.99555486  0.25618370  0.00106921
   0.99847142  0.24789719  0.49097383
   0.99883907  0.75289621  0.00028388
   0.99662388  0.75619215  0.50502630
   0.49515320  0.25805189  0.00139571
   0.50841679  0.24571837  0.49884650
   0.50770670  0.75589225  0.99991769
   0.50592299  0.75307953  0.50973181
   0.99955959  0.25842784  0.25503392
   0.00667282  0.24278760  0.74689196
   0.00537282  0.74719948  0.24361024
   0.99256209  0.75099480  0.74151728
   0.50783713  0.24193161  0.25183999
   0.50698770  0.24302994  0.75050086
   0.50525924  0.75157466  0.25194155
   0.50142793  0.74193219  0.74406115
   0.25684183  0.99819096  0.00560293
   0.24990309  0.99350666  0.50613832
   0.24431992  0.50787536  0.99745448
   0.25417627  0.49424168  0.50658634
   0.75695186  0.00031933  0.99457624
   0.74991679  0.00711741  0.49531075
   0.74202632  0.50101365  0.00493261
   0.75523695  0.49825150  0.50549919
   0.24475667  0.00229319  0.24344530
   0.25730021  0.99793304  0.74384509
   0.25487083  0.49207807  0.25169402
   0.24705585  0.50606239  0.74100696
   0.74355962  0.00080405  0.25691327
   0.74827011  0.00666477  0.75633130
   0.75534503  0.49868342  0.24270127
   0.75726248  0.49822639  0.74260973
   0.25722540  0.25136906  0.00587326
   0.25322820  0.25659881  0.50528598
   0.25247626  0.74208186  0.99348929
   0.25149830  0.75499839  0.49225848
   0.75707384  0.25139599  0.00727020
   0.74247201  0.24295551  0.49788791
   0.74136041  0.74927076  0.99431619
   0.74064198  0.75272370  0.49512213
   0.25088908  0.25762978  0.24351547
   0.24412176  0.25153907  0.74361659
   0.24265202  0.74784989  0.25493659
   0.24774764  0.74174547  0.75631061
   0.74194945  0.25083928  0.24247335
   0.74434874  0.24225698  0.75085665
   0.74341957  0.74978585  0.25767906
   0.75707163  0.75079047  0.75720497
   0.00800986  0.50116463  0.62414407
   0.99334702  0.00924324  0.37748703
   0.99751489  0.00232794  0.87038864
   0.49932841  0.49251489  0.37543763
   0.49425115  0.49578244  0.87491278
   0.98934110  0.75809569  0.13069445
   0.99774669  0.74486049  0.62219486
   0.49670410  0.75151279  0.62520532
   0.99366829  0.24500299  0.37601486
   0.25343809  0.00271782  0.12547417
   0.25281475  0.00363696  0.62514977
   0.23883452  0.49463499  0.62554142
   0.75010267  0.49153056  0.12569239
   0.74580192  0.49351167  0.62420887
   0.75186853  0.00008789  0.37680290
   0.74841862  0.99975917  0.87379085
   0.24499825  0.24946097  0.12561838
   0.25142724  0.24937872  0.62500141
   0.74191281  0.25880760  0.12645573
   0.25157195  0.74621806  0.37472206
   0.24741123  0.75185274  0.87466829
   0.74644271  0.75167055  0.37524153
   0.74443443  0.75115101  0.87543120
   0.12454661  0.50613677  0.99428356
   0.62601029  0.51017228  0.99807093
   0.12453475  0.00438372  0.25288987
   0.62419964  0.00270837  0.25226815
   0.62436427  0.25883389  0.49347085
   0.62385313  0.73781513  0.00699012
   0.62374246  0.76416134  0.50110774
   0.12456649  0.25186642  0.75013526
   0.12554285  0.75054008  0.24843027
   0.62530349  0.24340438  0.26256274
   0.62570120  0.25301353  0.74859518
   0.62144140  0.75250054  0.24837948
   0.37600175  0.99763038  0.99384262
   0.37517490  0.50663658  0.50427529
   0.87225121  0.99800041  0.00401754
   0.87505265  0.50427242  0.49938250
   0.37590119  0.99735533  0.75547636
   0.37369298  0.49477235  0.24862104
   0.87534050  0.49590749  0.25216024
   0.87527875  0.50752836  0.74612115
   0.37581096  0.25068991  0.00444368
   0.87421964  0.25078823  0.00547204
   0.87462348  0.74471058  0.75150768
   0.51168451  0.12269076  0.49371491
   0.99669346  0.12611381  0.74175551
   0.49304428  0.12508414  0.26387034
   0.50199712  0.12376062  0.74916717
   0.50188722  0.62511355  0.75148523
   0.00357474  0.37369858  0.00264138
   0.99997162  0.87816607  0.00457271
   0.99283571  0.87537002  0.49751772
   0.50590341  0.37394544  0.00840403
   0.50742235  0.87546730  0.00605556
   0.00809796  0.37363390  0.24841776
   0.26001154  0.62438804  0.00157972
   0.73985871  0.12522666  0.50481566
   0.24800245  0.62422886  0.74942743
   0.75128888  0.12485051  0.74361319
   0.25407754  0.37289695  0.49323263
   0.25445408  0.87595933  0.49930125
   0.24051057  0.37430677  0.25648185
   0.99533659  0.99335809  0.12922606
   0.00539559  0.99832741  0.62286485
   0.00065462  0.50548921  0.12476070
   0.49542034  0.00880840  0.12691407
   0.49911905  0.99725014  0.62312559
   0.50257409  0.50783790  0.12764200
   0.50780109  0.50108528  0.62464872
   0.00299142  0.49739648  0.37550589
   0.99518407  0.49836841  0.87259275
   0.50058516  0.98759130  0.37702722
   0.51327830  0.99802242  0.87529046
   0.00786193  0.24652738  0.12717378
   0.00019178  0.25906467  0.62092129
   0.50911294  0.23779951  0.12714850
   0.49769305  0.24623629  0.62285993
   0.49149711  0.74496673  0.12722105
   0.99493561  0.24788218  0.87402898
   0.99700441  0.74996455  0.37571312
   0.00730073  0.75216703  0.86775572
   0.48988669  0.26341420  0.37589907
   0.49925021  0.25326825  0.87474661
   0.49597234  0.75636544  0.37608127
   0.50251527  0.75405094  0.87432677
   0.24414350  0.49410235  0.12467477
   0.74771803  0.00166183  0.12756792
   0.74419602  0.99484724  0.62328169
   0.25287630  0.00187788  0.37536718
   0.24334177  0.99540940  0.87448729
   0.24735342  0.51111750  0.37510488
   0.25923128  0.49715063  0.87342413
   0.74629857  0.50628573  0.37489384
   0.75285787  0.50599345  0.87412665
   0.25785546  0.75467127  0.12523895
   0.25343944  0.75123180  0.62458787
   0.75064506  0.26129151  0.62301137
   0.75378207  0.75046887  0.12736345
   0.75039178  0.74938151  0.62464348
   0.25393716  0.24308174  0.37425882
   0.25270506  0.25064364  0.87514246
   0.76260658  0.24335546  0.37434161
   0.75314589  0.24454039  0.87605946
   0.12558486  0.00525129  0.00193691
   0.12421581  0.00118785  0.49689447
   0.12311488  0.49685630  0.49175207
   0.62482216  0.00632871  0.00668676
   0.62359562  0.98231806  0.50051534
   0.62517551  0.49179832  0.49755497
   0.12639850  0.99966786  0.74769405
   0.12367090  0.50845675  0.24949271
   0.12320750  0.49300089  0.76246036
   0.62372199  0.99466750  0.74337732
   0.62490843  0.50097050  0.25054960
   0.62656076  0.49256583  0.75562896
   0.12483192  0.24571437  0.99386173
   0.12340382  0.24909766  0.49692775
   0.12908642  0.74158638  0.00741456
   0.12379790  0.75331520  0.49896901
   0.62623854  0.24581431  0.99378825
   0.12417456  0.23548930  0.25716698
   0.12388605  0.75425502  0.74320822
   0.62610670  0.75469275  0.74623745
   0.37730751  0.01024311  0.49739323
   0.37367123  0.49179849  0.00781236
   0.87420233  0.01021264  0.51122840
   0.87474490  0.49383236  0.99920588
   0.37652947  0.99504386  0.25515158
   0.37476914  0.49807095  0.74059694
   0.87313632  0.99649719  0.24574587
   0.87407497  0.99412882  0.73940291
   0.37895193  0.23959479  0.49942407
   0.37721634  0.75987213  0.99714434
   0.37704093  0.74118499  0.49848306
   0.87403420  0.24646345  0.50583217
   0.86731606  0.76183445  0.99878336
   0.87163878  0.74046981  0.49913678
   0.37788468  0.25814942  0.24553189
   0.37629184  0.24903196  0.75100029
   0.37668521  0.75024858  0.25143983
   0.37515827  0.75458030  0.75302097
   0.87390674  0.25663251  0.24411427
   0.87440372  0.25396527  0.74626485
   0.87140445  0.74992188  0.25598197
   0.00032384  0.12610003  0.00413215
   0.00123385  0.12581690  0.51012963
   0.98951847  0.62306056  0.99679436
   0.00504821  0.62622329  0.49167981
   0.50155981  0.12465293  0.99619955
   0.48702341  0.62691569  0.99870911
   0.50998837  0.62671195  0.49569917
   0.98943796  0.12792120  0.24276623
   0.99668297  0.62258339  0.25311531
   0.01048572  0.62451098  0.75378057
   0.49877188  0.62604424  0.25681547
   0.99803531  0.37366086  0.49661831
   0.49119491  0.37183406  0.50822512
   0.48571469  0.87845017  0.50103902
   0.99545421  0.37440654  0.75118346
   0.99187326  0.87776489  0.25213035
   0.99971020  0.87629067  0.74333973
   0.50549767  0.37154257  0.24017025
   0.49642341  0.37307415  0.74360773
   0.49697642  0.87653650  0.24461406
   0.50213675  0.87543810  0.75138072
   0.24908518  0.12457008  0.99360224
   0.24660710  0.12443512  0.49670184
   0.24298552  0.62616094  0.50492015
   0.74737386  0.12622604  0.00430639
   0.76456383  0.62555742  0.00454918
   0.74021373  0.62567601  0.50256757
   0.26049677  0.12624540  0.25309592
   0.25038642  0.12448061  0.75737271
   0.25258791  0.62337019  0.24100055
   0.76023143  0.12594961  0.24769519
   0.74827559  0.62495469  0.24689356
   0.73932200  0.62482526  0.74668550
   0.24527453  0.37563903  0.99729502
   0.24348797  0.87406503  0.00234067
   0.74435967  0.37503585  0.98776607
   0.75720430  0.37245972  0.48974142
   0.73795144  0.87541619  0.00752233
   0.76351101  0.87668861  0.50314503
   0.25434470  0.37563774  0.75606661
   0.25255449  0.87589873  0.25185690
   0.24731637  0.87365912  0.74658483
   0.74571269  0.37406102  0.26485462
   0.75501273  0.37384866  0.75816871
   0.75230465  0.87548205  0.24498653
   0.75094765  0.87544076  0.74554885
 
 position of ions in cartesian coordinates  (Angst):
  14.59637296 13.53964995  1.86660882
  15.36815856 15.34952629 15.27916515
  15.40599623 15.29760359  7.63285019
   0.09955525  7.61139439 15.38202003
  15.33116394  7.75586912  7.81763203
   7.63308362 15.32987576  0.00437262
   7.72753614  0.12840908  7.70851505
   7.78332578  7.64171947 15.36757022
   7.58453263  7.70388321  7.64254357
   0.10622848  0.08758046  4.00616671
   0.01440638  0.12284080 11.63565698
  15.32382954  7.60785891  3.87330483
  15.31510401  7.70144799 11.43852421
   7.79276571  0.13373257  3.87248663
   7.59969592  0.07915849 11.60226211
   7.59851574  7.66153571  3.97201858
   7.72789655  7.77603226 11.70256154
  15.35775875  3.95197449  0.01649402
  15.40275061  3.82414414  7.57392476
  15.40842211 11.61442614  0.00437929
  15.37424980 11.66527047  7.79070281
   7.63839713  3.98079387  0.02153064
   7.84300566  3.79053292  7.69537119
   7.83205159 11.66064401 15.42506121
   7.80453548 11.61725414  7.86329167
  15.41953708  3.98659334  3.93423760
   0.10293709  3.74532189 11.52180267
   0.08288289 11.52654647  3.75801219
  15.31159126 11.58509442 11.43889097
   7.83406371  3.73211716  3.88496702
   7.82096005  3.74906030 11.57747469
   7.79429635 11.59403943  3.88653380
   7.73519324 11.44529152 11.47813353
   3.96212701 15.39842418  0.08643273
   3.85508781 15.32616264  7.80785721
   3.76895988  7.83465341 15.38706302
   3.92100732  7.62433573  7.81476860
  11.67698994  0.00492612 15.34266226
  11.56846456  0.10979554  7.64082758
  11.44674356  7.72880246  0.07609209
  11.65053521  7.68619252  7.79799776
   3.77569734  0.03537546  3.75546781
   3.96919820 15.39444538 11.47480058
   3.93172171  7.59095920  3.88271521
   3.81116538  7.80668588 11.43101868
  11.47039685  0.01240361  3.96322909
  11.54306246  0.10281295 11.66741695
  11.65220243  7.69285554  3.74399017
  11.68178167  7.68580516 11.45574354
   3.96804423  3.87770232  0.09060284
   3.90638197  3.95837820  7.79470871
   3.89478234 11.44760043 15.32589467
   3.87969600 11.64685512  7.59374224
  11.67887158  3.87811775  0.11215250
  11.45361899  3.74791207  7.68058376
  11.43647107 11.55849878 15.33865063
  11.42538838 11.61176493  7.63791787
   3.87029800  3.97428228  3.75655027
   3.76590314  3.88032501 11.47127562
   3.74323032 11.53657992  3.93273618
   3.82183717 11.44241107 11.66709787
  11.44555778  3.86952974  3.74047416
  11.48256999  3.73713636 11.58296315
  11.46823642 11.56644477  3.97504248
  11.67883761 11.58194228 11.68089445
   0.12356281  7.73113144  9.62825297
  15.32369987  0.14258932  5.82323987
  15.38799491  0.03591159 13.42690319
   7.70280526  7.59769776  5.79162511
   7.62448187  7.64810404 13.49669410
  15.26190325 11.69463501  2.01613585
  15.39157071 11.49046443  9.59818391
   7.66232186 11.59308501  9.64462419
  15.32865600  3.77949728  5.80052971
   3.90961980  0.04192605  1.93560612
   3.90000405  0.05610501  9.64376729
   3.68434038  7.63040310  9.64980901
  11.57133210  7.58251310  1.93897244
  11.50498728  7.61307435  9.62925269
  11.59857277  0.00135587  5.81268631
  11.54535330 15.42261590 13.47938692
   3.77942415  3.84826747  1.93783064
   3.87859976  3.84699864  9.64147867
  11.44499265  3.99245165  1.95074793
   3.88083223 11.51140683  5.78058658
   3.81664757 11.59832916 13.49292253
  11.51487232 11.59551867  5.78859999
  11.48389199 11.58750417 13.50469149
   1.92129724  7.80783334 15.33814726
   9.65704199  7.87008651 15.39657247
   1.92111433  0.06762466  3.90116277
   9.62911021  0.04178016  3.89157206
   9.63164995  3.99285725  7.61244464
   9.62376488 11.38178036  0.10783189
   9.62205768 11.78820575  7.73025388
   1.92160395  3.88537482 11.57183478
   1.93666561 11.57807966  3.83236765
   9.64613865  3.75483654  4.05037969
   9.65227387  3.90307045 11.54807706
   9.58656070 11.60832243  3.83158414
   5.80032741 15.38977647 15.33134519
   5.78757226  7.81554363  7.77911757
  13.45563584 15.39548468  0.06197597
  13.49885175  7.77907322  7.70363972
   5.79877614 15.38553339 11.65422834
   5.76471157  7.63252209  3.83531049
  13.50329232  7.65003316  3.88990731
  13.50233975  7.82930049 11.50991190
   5.79738427  3.86722560  0.06854973
  13.48600148  3.86874218  0.08441345
  13.49223128 11.48815196 11.59300626
   7.89341466  1.89266833  7.61620957
  15.37532326  1.94547332 11.44256608
   7.60586424  1.92958934  4.07055124
   7.74397372  1.90917223 11.55690074
   7.74227832  9.64320853 11.59265992
   0.05514505  5.76479796  0.04074675
  15.42589312 13.54688049  0.07054020
  15.31581234 13.50374769  7.67487304
   7.80423342  5.76860619  0.12964339
   7.82766505 13.50524828  0.09341506
   0.12492174  5.76380014  3.83217466
   4.01102414  9.63201662  0.02436923
  11.41330538  1.93178783  7.78745352
   3.82576785  9.62956104 11.56091566
  11.58963088  1.92598526 11.47122327
   3.91948420  5.75243183  7.60876977
   3.92529285 13.51283856  7.70238643
   3.71019566  5.77418008  3.95657398
  15.35439171 15.32387069  1.99348391
   0.08323422 15.40052903  9.60851934
   0.01009832  7.79784388  1.92459992
   7.64251822  0.13588127  1.95781845
   7.69957561 15.38391074  9.61254159
   7.75287426  7.83407551  1.96904779
   7.83350777  7.72990746  9.63603788
   0.04614657  7.67300269  5.79267810
  15.35203884  7.68799611 13.46090452
   7.72219233 15.23491029  5.81614662
   7.91800093 15.39582426 13.50252028
   0.12128076  3.80301303  1.96182481
   0.00295840  3.99641732  9.57853740
   7.85374471  3.66837401  1.96143481
   7.67757772  3.79852253  9.60844341
   7.58199713 11.49210338  1.96255402
  15.34820602  3.82391261 13.48306041
  15.38012002 11.56920145  5.79587491
   0.11262350 11.60317751 13.38628691
   7.55715427  4.06351463  5.79874343
   7.70159895  3.90699984 13.49413071
   7.65103353 11.66794356  5.80155416
   7.75196688 11.63223937 13.48765411
   3.76623841  7.62218641  1.92327425
  11.53454584  0.02563600  1.96790501
  11.48021418 15.34684287  9.61494965
   3.90095351  0.02896873  5.79053835
   3.75387069 15.35551492 13.49013037
   3.81575566  7.88466777  5.78649211
   3.99898753  7.66921020 13.47372975
  11.51264869  7.81013121  5.78323652
  11.61383472  7.80562243 13.48456702
   3.97776372 11.64180875  1.93197742
   3.90964070 11.58875047  9.63509922
  11.57969914  4.03076938  9.61077962
  11.62809169 11.57698117  1.96475068
  11.57579197 11.56020716  9.63595704
   3.91731874  3.74985941  5.77344049
   3.89831193  3.86651178 13.50023729
  11.76422151  3.75408192  5.77471764
  11.61827776  3.77236094 13.51438316
   1.93731366  0.08100809  0.02987948
   1.91619426  0.01832421  7.66525858
   1.89921092  7.66466970  7.58593024
   9.63871344  0.09762874  0.10315219
   9.61979237 15.15356347  7.72111523
   9.64416435  7.58664369  7.67544764
   1.94986503 15.42120727 11.53417595
   1.90778824  7.84362215  3.84875706
   1.90063972  7.60519493 11.76196593
   9.62174193 15.34407003 11.46758462
   9.64004428  7.72813670  3.86506104
   9.66553373  7.59848351 11.65658252
   1.92569857  3.79047124 15.33164004
   1.90366815  3.84266303  7.66577201
   1.99132991 11.43995704  0.11437938
   1.90974738 11.62088955  7.69726118
   9.66056293  3.79201287 15.33050646
   1.91555788  3.63273589  3.96714297
   1.91110716 11.63538759 11.46497598
   9.65852923 11.64214013 11.51170598
   5.82047061  0.15801367  7.67295259
   5.76437611  7.58664628  0.12051600
  13.48573455  0.15754356  7.88637859
  13.49410431  7.61802144 15.41408059
   5.80846829 15.34987598  3.93605279
   5.78131283  7.68340738 11.42469360
  13.46928993 15.37229550  3.79095715
  13.48376979 15.33576029 11.40627401
   5.84583786  3.69606855  7.70428108
   5.81906409 11.72203900 15.38227860
   5.81635818 11.43376498  7.68976472
  13.48314091  3.80202680  7.80313452
  13.37950458 11.75231038 15.40756269
  13.44618840 11.42273239  7.69984918
   5.82937411  3.98229837  3.78765614
   5.80480241  3.84164942 11.58517909
   5.81087066 11.57358298  3.87879405
   5.78731571 11.64040546 11.61635080
  13.48117466  3.95889799  3.76578746
  13.48884115  3.91775232 11.51212866
  13.44257355 11.56854321  3.94886258
   0.00499570  1.94526078  0.06374392
   0.01903373  1.94089309  7.86942855
  15.26463950  9.61153847 15.37687976
   0.07787530  9.66032769  7.58481544
   7.73722763  1.92293731 15.36770392
   7.51298427  9.67100891 15.40641728
   7.86724942  9.66786593  7.64681941
  15.26339746  1.97335477  3.74499223
  15.37516134  9.60417742  3.90464060
   0.16175623  9.63391314 11.62806865
   7.69422009  9.65756566  3.96172043
  15.39602307  5.76421614  7.66099842
   7.57733524  5.73603532  7.84004900
   7.49279559 13.55126312  7.72919380
  15.35620620  5.77571922 11.58800463
  15.30096521 13.54069173  3.88944618
  15.42186043 13.51794991 11.46700474
   7.79797438  5.73153872  3.70494573
   7.65799188  5.75516536 11.47113894
   7.66652278 13.52174216  3.77349741
   7.74612771 13.50479786 11.59104767
   3.84247037  1.92165933 15.32763707
   3.80424277  1.91957734  7.66228692
   3.74837509  9.65936592  7.78906542
  11.52923648  1.94720460  0.06643185
  11.79441468  9.65005588  0.07017719
  11.41878206  9.65188519  7.75277362
   4.01850939  1.94750340  3.90434149
   3.86254377  1.92027905 11.68348211
   3.89650478  9.61631490  3.71775421
  11.72758160  1.94294033  3.82102793
  11.54314688  9.64075798  3.80866180
  11.40502582  9.63876130 11.51861767
   3.78368604  5.79473195 15.38460309
   3.75612604 13.48361642  0.03610790
  11.48273859  5.78542711 15.23760632
  11.68088412  5.74568693  7.55491321
  11.38388319 13.50445993  0.11604200
  11.77817359 13.52408871  7.76168174
   3.92360558  5.79471205 11.66333371
   3.89598919 13.51190378  3.88522790
   3.81518422 13.47735475 11.51706476
  11.50361076  5.77038908  4.08573504
  11.64707627  5.76711315 11.69576145
  11.60530050 13.50547595  3.77924334
  11.58436704 13.50483899 11.50108336
 


--------------------------------------------------------------------------------------------------------


 k-point  1 :   0.2500 0.2500 0.2500  plane waves:   93161
 k-point  2 :  -0.2500 0.2500 0.2500  plane waves:   93161
 k-point  3 :   0.2500-0.2500 0.2500  plane waves:   93161
 k-point  4 :  -0.2500-0.2500 0.2500  plane waves:   93161

 maximum and minimum number of plane-waves per node :     11686    11606

 maximum number of plane-waves:     93161
 maximum index in each direction: 
   IXMAX=   28   IYMAX=   28   IZMAX=   27
   IXMIN=  -28   IYMIN=  -28   IZMIN=  -28


 real space projection operators:
  total allocation   :     105608.28 KBytes
  max/ min on nodes  :      13244.80      13166.40


 parallel 3D FFT for wavefunctions:
    minimum data exchange during FFTs selected (reduces bandwidth)
 parallel 3D FFT for charge:
    minimum data exchange during FFTs selected (reduces bandwidth)


 total amount of memory used by VASP MPI-rank0   291466. kBytes
=======================================================================

   base      :      30000. kBytes
   nonlr-proj:      49431. kBytes
   fftplans  :      27976. kBytes
   grid      :      34041. kBytes
   one-center:       1026. kBytes
   wavefun   :     148992. kBytes
 
     INWAV:  cpu time   51.7600: real time   52.1596
 Broyden mixing: mesh for mixing (old mesh)
   NGX = 57   NGY = 57   NGZ = 57
  (NGX  =240   NGY  =240   NGZ  =240)
  gives a total of 185193 points

 charge density for first step will be calculated from the start-wavefunctions


--------------------------------------------------------------------------------------------------------


 Maximum index for non-local projection operator          970
 Maximum index for augmentation-charges         3292 (set IRDMAX)


--------------------------------------------------------------------------------------------------------


 initial charge from wavefunction
 First call to EWALD:  gamma=   0.115
 Maximum number of real-space cells 3x 3x 3
 Maximum number of reciprocal cells 3x 3x 3

    FEWALD:  cpu time    0.0353: real time    0.0353


--------------------------------------- Iteration      1(   1)  ---------------------------------------


    POTLOK:  cpu time    0.2837: real time    0.2941
    SETDIJ:  cpu time    1.3719: real time    1.3720
     EDDAV:  cpu time  132.7047: real time  133.8270
       DOS:  cpu time    0.0030: real time    0.0030
    CHARGE:  cpu time    5.2542: real time    5.2549
    MIXING:  cpu time    0.0133: real time    0.0134
    --------------------------------------------
      LOOP:  cpu time  139.6308: real time  140.7644

 eigenvalue-minimisations  : 23592
 total energy-change (2. order) :-0.1844680E+04  (-0.3472233E+03)
 number of electron    1923.0000028 magnetization       1.0000000
 augmentation part      504.1124502 magnetization       0.6306803

 Broyden mixing:
  rms(total) = 0.82410E+01    rms(broyden)= 0.82379E+01
  rms(prec ) = 0.12627E+02
  weight for this iteration     100.00

 Free energy of the ion-electron system (eV)
  ---------------------------------------------------
  alpha Z        PSCENC =      6118.73324990
  Ewald energy   TEWEN  =   -103189.16934834
  -Hartree energ DENC   =    -65431.53154729
  -exchange      EXHF   =         0.00000000
  -V(xc)+E(xc)   XCENC  =      8960.86125181
  PAW double counting   =    198777.82206425  -199773.88322818
  entropy T*S    EENTRO =        -0.00667871
  eigenvalues    EBANDS =    -25884.75790097
  atomic energy  EATOM  =    178577.25249613
  Solvation  Ediel_sol  =         0.00000000
  ---------------------------------------------------
  free energy    TOTEN  =     -1844.67964140 eV

  energy without entropy =    -1844.67296269  energy(sigma->0) =    -1844.67630204


--------------------------------------------------------------------------------------------------------




--------------------------------------- Iteration      1(   2)  ---------------------------------------


    POTLOK:  cpu time    0.2657: real time    0.2679
    SETDIJ:  cpu time    1.4333: real time    1.4335
     EDDAV:  cpu time  147.6268: real time  148.1699
       DOS:  cpu time    0.0030: real time    0.0030
    CHARGE:  cpu time    5.2217: real time    5.3144
    MIXING:  cpu time    0.0087: real time    0.0097
    --------------------------------------------
      LOOP:  cpu time  154.5592: real time  155.1982

 eigenvalue-minimisations  : 26832
 total energy-change (2. order) :-0.4416500E+02  (-0.3548924E+03)
 number of electron    1923.0000027 magnetization       1.0000000
 augmentation part      507.5732050 magnetization       0.6456761

 Broyden mixing:
  rms(total) = 0.10677E+02    rms(broyden)= 0.10673E+02
  rms(prec ) = 0.15698E+02
  weight for this iteration     100.00

 eigenvalues of (default mixing * dielectric matrix)
  average eigenvalue GAMMA=   0.3991
  0.3991

 Free energy of the ion-electron system (eV)
  ---------------------------------------------------
  alpha Z        PSCENC =      6118.73324990
  Ewald energy   TEWEN  =   -103189.16934834
  -Hartree energ DENC   =    -65501.67925790
  -exchange      EXHF   =         0.00000000
  -V(xc)+E(xc)   XCENC  =      8960.78020705
  PAW double counting   =    200761.91687122  -201733.37350004
  entropy T*S    EENTRO =        -0.00288294
  eigenvalues    EBANDS =    -25883.30247326
  atomic energy  EATOM  =    178577.25249613
  Solvation  Ediel_sol  =         0.00000000
  ---------------------------------------------------
  free energy    TOTEN  =     -1888.84463817 eV

  energy without entropy =    -1888.84175523  energy(sigma->0) =    -1888.84319670


--------------------------------------------------------------------------------------------------------




--------------------------------------- Iteration      1(   3)  ---------------------------------------


    POTLOK:  cpu time    0.2604: real time    0.2627
    SETDIJ:  cpu time    1.3724: real time    1.3725
     EDDAV:  cpu time  153.2012: real time  154.3230
       DOS:  cpu time    0.0017: real time    0.0017
    CHARGE:  cpu time    5.2779: real time    5.2805
    MIXING:  cpu time    0.0078: real time    0.0078
    --------------------------------------------
      LOOP:  cpu time  160.1215: real time  161.2483

 eigenvalue-minimisations  : 28068
 total energy-change (2. order) : 0.3677813E+02  (-0.1240406E+03)
 number of electron    1923.0000027 magnetization       1.0000000
 augmentation part      492.5067484 magnetization       0.6033497

 Broyden mixing:
  rms(total) = 0.56911E+01    rms(broyden)= 0.56887E+01
  rms(prec ) = 0.65412E+01
  weight for this iteration     100.00

 eigenvalues of (default mixing * dielectric matrix)
  average eigenvalue GAMMA=   0.4476
  0.4476  0.4476

 Free energy of the ion-electron system (eV)
  ---------------------------------------------------
  alpha Z        PSCENC =      6118.73324990
  Ewald energy   TEWEN  =   -103189.16934834
  -Hartree energ DENC   =    -65594.33459486
  -exchange      EXHF   =         0.00000000
  -V(xc)+E(xc)   XCENC  =      8963.18895165
  PAW double counting   =    200867.63803204  -201832.88568954
  entropy T*S    EENTRO =        -0.00000000
  eigenvalues    EBANDS =    -25762.48960875
  atomic energy  EATOM  =    178577.25249613
  Solvation  Ediel_sol  =         0.00000000
  ---------------------------------------------------
  free energy    TOTEN  =     -1852.06651177 eV

  energy without entropy =    -1852.06651177  energy(sigma->0) =    -1852.06651177


--------------------------------------------------------------------------------------------------------




--------------------------------------- Iteration      1(   4)  ---------------------------------------


    POTLOK:  cpu time    0.2608: real time    0.2630
    SETDIJ:  cpu time    1.3765: real time    1.3768
     EDDAV:  cpu time  142.6828: real time  143.4601
       DOS:  cpu time    0.0017: real time    0.0017
    CHARGE:  cpu time    5.2540: real time    5.2546
    MIXING:  cpu time    0.0082: real time    0.0085
    --------------------------------------------
      LOOP:  cpu time  149.5840: real time  150.3647

 eigenvalue-minimisations  : 25836
 total energy-change (2. order) : 0.4536975E+02  (-0.3194767E+02)
 number of electron    1923.0000027 magnetization       1.0000000
 augmentation part      493.7394378 magnetization       0.5938182

 Broyden mixing:
  rms(total) = 0.41431E+01    rms(broyden)= 0.41423E+01
  rms(prec ) = 0.48163E+01
  weight for this iteration     100.00

 eigenvalues of (default mixing * dielectric matrix)
  average eigenvalue GAMMA=   0.5820
  0.6498  0.6498  0.4464

 Free energy of the ion-electron system (eV)
  ---------------------------------------------------
  alpha Z        PSCENC =      6118.73324990
  Ewald energy   TEWEN  =   -103189.16934834
  -Hartree energ DENC   =    -65551.62287978
  -exchange      EXHF   =         0.00000000
  -V(xc)+E(xc)   XCENC  =      8968.77647830
  PAW double counting   =    200930.53108290  -201911.29424639
  entropy T*S    EENTRO =        -0.00000000
  eigenvalues    EBANDS =    -25749.90359935
  atomic energy  EATOM  =    178577.25249613
  Solvation  Ediel_sol  =         0.00000000
  ---------------------------------------------------
  free energy    TOTEN  =     -1806.69676662 eV

  energy without entropy =    -1806.69676662  energy(sigma->0) =    -1806.69676662


--------------------------------------------------------------------------------------------------------




--------------------------------------- Iteration      1(   5)  ---------------------------------------


    POTLOK:  cpu time    0.2627: real time    0.2650
    SETDIJ:  cpu time    1.3741: real time    1.4647
     EDDAV:  cpu time  147.1772: real time  148.2060
       DOS:  cpu time    0.0018: real time    0.0018
    CHARGE:  cpu time    5.2843: real time    5.2846
    MIXING:  cpu time    0.0073: real time    0.0073
    --------------------------------------------
      LOOP:  cpu time  154.1074: real time  155.2293

 eigenvalue-minimisations  : 26640
 total energy-change (2. order) : 0.3472055E+02  (-0.1070483E+02)
 number of electron    1923.0000027 magnetization       1.0000000
 augmentation part      494.4742574 magnetization       0.5971980

 Broyden mixing:
  rms(total) = 0.22324E+01    rms(broyden)= 0.22319E+01
  rms(prec ) = 0.26105E+01
  weight for this iteration     100.00

 eigenvalues of (default mixing * dielectric matrix)
  average eigenvalue GAMMA=   0.6786
  0.8675  0.8675  0.4897  0.4897

 Free energy of the ion-electron system (eV)
  ---------------------------------------------------
  alpha Z        PSCENC =      6118.73324990
  Ewald energy   TEWEN  =   -103189.16934834
  -Hartree energ DENC   =    -65555.17763972
  -exchange      EXHF   =         0.00000000
  -V(xc)+E(xc)   XCENC  =      8973.96240926
  PAW double counting   =    200376.23971888  -201370.94263603
  entropy T*S    EENTRO =        -0.00000000
  eigenvalues    EBANDS =    -25702.87446370
  atomic energy  EATOM  =    178577.25249613
  Solvation  Ediel_sol  =         0.00000000
  ---------------------------------------------------
  free energy    TOTEN  =     -1771.97621361 eV

  energy without entropy =    -1771.97621361  energy(sigma->0) =    -1771.97621361


--------------------------------------------------------------------------------------------------------




--------------------------------------- Iteration      1(   6)  ---------------------------------------


    POTLOK:  cpu time    0.2598: real time    0.2619
    SETDIJ:  cpu time    1.3786: real time    1.3786
     EDDAV:  cpu time  148.7222: real time  149.9390
       DOS:  cpu time    0.0019: real time    0.0021
    CHARGE:  cpu time    5.2538: real time    5.2920
    MIXING:  cpu time    0.0082: real time    0.0082
    --------------------------------------------
      LOOP:  cpu time  155.6245: real time  156.8818

 eigenvalue-minimisations  : 26844
 total energy-change (2. order) : 0.1173334E+02  (-0.4845965E+01)
 number of electron    1923.0000027 magnetization       1.0000000
 augmentation part      495.6583988 magnetization       0.5867069

 Broyden mixing:
  rms(total) = 0.13922E+01    rms(broyden)= 0.13919E+01
  rms(prec ) = 0.15005E+01
  weight for this iteration     100.00

 eigenvalues of (default mixing * dielectric matrix)
  average eigenvalue GAMMA=   0.7143
  0.9741  0.9741  0.4476  0.5879  0.5879

 Free energy of the ion-electron system (eV)
  ---------------------------------------------------
  alpha Z        PSCENC =      6118.73324990
  Ewald energy   TEWEN  =   -103189.16934834
  -Hartree energ DENC   =    -65499.38602153
  -exchange      EXHF   =         0.00000000
  -V(xc)+E(xc)   XCENC  =      8973.94078595
  PAW double counting   =    199868.86344821  -200871.38581279
  entropy T*S    EENTRO =        -0.00000000
  eigenvalues    EBANDS =    -25739.09166686
  atomic energy  EATOM  =    178577.25249613
  Solvation  Ediel_sol  =         0.00000000
  ---------------------------------------------------
  free energy    TOTEN  =     -1760.24286932 eV

  energy without entropy =    -1760.24286932  energy(sigma->0) =    -1760.24286932


--------------------------------------------------------------------------------------------------------




--------------------------------------- Iteration      1(   7)  ---------------------------------------


    POTLOK:  cpu time    0.2624: real time    0.2646
    SETDIJ:  cpu time    1.3769: real time    1.3770
     EDDAV:  cpu time  153.2345: real time  154.1764
       DOS:  cpu time    0.0019: real time    0.0019
    CHARGE:  cpu time    5.2899: real time    5.2901
    MIXING:  cpu time    0.0077: real time    0.0077
    --------------------------------------------
      LOOP:  cpu time  160.1733: real time  161.1177

 eigenvalue-minimisations  : 28116
 total energy-change (2. order) : 0.1247233E+01  (-0.8453223E+00)
 number of electron    1923.0000027 magnetization       1.0000000
 augmentation part      496.3832541 magnetization       0.5749423

 Broyden mixing:
  rms(total) = 0.95711E+00    rms(broyden)= 0.95645E+00
  rms(prec ) = 0.10294E+01
  weight for this iteration     100.00

 eigenvalues of (default mixing * dielectric matrix)
  average eigenvalue GAMMA=   0.8833
  1.4164  1.4164  0.7170  0.7170  0.5164  0.5164

 Free energy of the ion-electron system (eV)
  ---------------------------------------------------
  alpha Z        PSCENC =      6118.73324990
  Ewald energy   TEWEN  =   -103189.16934834
  -Hartree energ DENC   =    -65466.41874916
  -exchange      EXHF   =         0.00000000
  -V(xc)+E(xc)   XCENC  =      8972.74894946
  PAW double counting   =    199576.71729291  -200580.46371591
  entropy T*S    EENTRO =        -0.00000000
  eigenvalues    EBANDS =    -25768.39581136
  atomic energy  EATOM  =    178577.25249613
  Solvation  Ediel_sol  =         0.00000000
  ---------------------------------------------------
  free energy    TOTEN  =     -1758.99563636 eV

  energy without entropy =    -1758.99563636  energy(sigma->0) =    -1758.99563636


--------------------------------------------------------------------------------------------------------




--------------------------------------- Iteration      1(   8)  ---------------------------------------


    POTLOK:  cpu time    0.2616: real time    0.2618
    SETDIJ:  cpu time    1.3822: real time    1.3822
     EDDAV:  cpu time  144.1189: real time  145.4438
       DOS:  cpu time    0.0019: real time    0.0019
    CHARGE:  cpu time    5.2989: real time    5.2991
    MIXING:  cpu time    0.0090: real time    0.0090
    --------------------------------------------
      LOOP:  cpu time  151.0724: real time  152.3977

 eigenvalue-minimisations  : 25968
 total energy-change (2. order) : 0.1864792E+00  (-0.6614525E+00)
[...]
   81        1.574   3.462   0.000   5.036
   82        1.574   3.462   0.000   5.036
   83        1.574   3.461   0.000   5.035
   84        1.576   3.471   0.000   5.048
   85        1.575   3.463   0.000   5.039
   86        1.575   3.465   0.000   5.040
   87        1.576   3.466   0.000   5.042
   88        1.575   3.466   0.000   5.041
   89        1.574   3.462   0.000   5.036
   90        1.575   3.457   0.000   5.032
   91        1.574   3.462   0.000   5.036
   92        1.574   3.463   0.000   5.037
   93        1.578   3.471   0.000   5.049
   94        1.577   3.471   0.000   5.048
   95        1.576   3.475   0.000   5.051
   96        1.575   3.464   0.000   5.039
   97        1.574   3.468   0.000   5.043
   98        1.576   3.473   0.000   5.049
   99        1.575   3.464   0.000   5.039
  100        1.576   3.461   0.000   5.037
  101        1.574   3.460   0.000   5.034
  102        1.575   3.460   0.000   5.035
  103        1.574   3.460   0.000   5.034
  104        1.574   3.461   0.000   5.035
  105        1.577   3.472   0.000   5.049
  106        1.575   3.463   0.000   5.038
  107        1.575   3.462   0.000   5.037
  108        1.576   3.473   0.000   5.049
  109        1.575   3.463   0.000   5.037
  110        1.575   3.461   0.000   5.035
  111        1.576   3.472   0.000   5.048
  112        1.577   3.463   0.000   5.039
  113        1.576   3.475   0.000   5.051
  114        1.577   3.474   0.000   5.051
  115        1.574   3.466   0.000   5.040
  116        1.575   3.463   0.000   5.038
  117        1.576   3.466   0.000   5.041
  118        1.569   3.494   0.000   5.063
  119        1.576   3.476   0.000   5.052
  120        1.575   3.459   0.000   5.034
  121        1.574   3.462   0.000   5.037
  122        1.577   3.472   0.000   5.049
  123        1.577   3.474   0.000   5.050
  124        1.576   3.470   0.000   5.046
  125        1.576   3.475   0.000   5.051
  126        1.576   3.471   0.000   5.046
  127        1.575   3.459   0.000   5.033
  128        1.574   3.461   0.000   5.035
  129        1.576   3.470   0.000   5.046
  130        1.736   4.381   0.000   6.117
  131        1.738   4.378   0.000   6.115
  132        1.737   4.380   0.000   6.118
  133        1.738   4.387   0.000   6.126
  134        1.738   4.385   0.000   6.123
  135        1.737   4.368   0.000   6.105
  136        1.736   4.366   0.000   6.103
  137        1.739   4.380   0.000   6.119
  138        1.738   4.381   0.000   6.119
  139        1.740   4.387   0.000   6.127
  140        1.739   4.387   0.000   6.126
  141        1.738   4.381   0.000   6.119
  142        1.738   4.380   0.000   6.117
  143        1.738   4.386   0.000   6.124
  144        1.739   4.386   0.000   6.125
  145        1.738   4.381   0.000   6.120
  146        1.737   4.381   0.000   6.118
  147        1.737   4.374   0.000   6.111
  148        1.737   4.377   0.000   6.113
  149        1.739   4.384   0.000   6.124
  150        1.738   4.388   0.000   6.126
  151        1.738   4.376   0.000   6.114
  152        1.738   4.380   0.000   6.118
  153        1.737   4.381   0.000   6.119
  154        1.737   4.371   0.000   6.108
  155        1.738   4.372   0.000   6.110
  156        1.737   4.370   0.000   6.106
  157        1.737   4.368   0.000   6.104
  158        1.738   4.375   0.000   6.113
  159        1.738   4.376   0.000   6.114
  160        1.737   4.368   0.000   6.105
  161        1.736   4.369   0.000   6.106
  162        1.736   4.369   0.000   6.106
  163        1.736   4.367   0.000   6.103
  164        1.738   4.378   0.000   6.116
  165        1.737   4.368   0.000   6.105
  166        1.737   4.371   0.000   6.107
  167        1.737   4.370   0.000   6.106
  168        1.737   4.370   0.000   6.107
  169        1.738   4.376   0.000   6.114
  170        1.738   4.379   0.000   6.117
  171        1.737   4.370   0.000   6.107
  172        1.738   4.388   0.000   6.126
  173        1.737   4.370   0.000   6.107
  174        1.737   4.370   0.000   6.107
  175        1.739   4.382   0.000   6.120
  176        1.737   4.366   0.000   6.103
  177        1.738   4.380   0.000   6.118
  178        1.737   4.368   0.000   6.105
  179        1.738   4.376   0.000   6.113
  180        1.738   4.380   0.000   6.118
  181        1.736   4.369   0.000   6.105
  182        1.738   4.377   0.000   6.115
  183        1.737   4.368   0.000   6.105
  184        1.737   4.380   0.000   6.117
  185        1.737   4.383   0.000   6.120
  186        1.737   4.381   0.000   6.118
  187        1.737   4.370   0.000   6.107
  188        1.738   4.378   0.000   6.116
  189        1.738   4.380   0.000   6.119
  190        1.738   4.380   0.000   6.118
  191        1.739   4.386   0.000   6.125
  192        1.737   4.369   0.000   6.106
  193        1.739   4.387   0.000   6.126
  194        1.736   4.367   0.000   6.103
  195        1.737   4.372   0.000   6.109
  196        1.737   4.381   0.000   6.118
  197        1.737   4.370   0.000   6.107
  198        1.737   4.380   0.000   6.117
  199        1.738   4.380   0.000   6.118
  200        1.738   4.381   0.000   6.119
  201        1.738   4.380   0.000   6.118
  202        1.738   4.379   0.000   6.117
  203        1.737   4.381   0.000   6.119
  204        1.738   4.377   0.000   6.115
  205        1.737   4.377   0.000   6.115
  206        1.737   4.368   0.000   6.105
  207        1.737   4.370   0.000   6.108
  208        1.737   4.381   0.000   6.119
  209        1.737   4.378   0.000   6.115
  210        1.737   4.370   0.000   6.106
  211        1.737   4.372   0.000   6.110
  212        1.737   4.371   0.000   6.108
  213        1.739   4.375   0.000   6.114
  214        1.736   4.378   0.000   6.115
  215        1.739   4.380   0.000   6.119
  216        1.736   4.368   0.000   6.104
  217        1.737   4.366   0.000   6.103
  218        1.737   4.379   0.000   6.116
  219        1.739   4.381   0.000   6.120
  220        1.738   4.385   0.000   6.123
  221        1.738   4.380   0.000   6.118
  222        1.737   4.380   0.000   6.117
  223        1.738   4.381   0.000   6.119
  224        1.738   4.380   0.000   6.118
  225        1.738   4.379   0.000   6.117
  226        1.738   4.379   0.000   6.117
  227        1.736   4.386   0.000   6.122
  228        1.738   4.378   0.000   6.116
  229        1.738   4.378   0.000   6.116
  230        1.737   4.369   0.000   6.106
  231        1.738   4.377   0.000   6.115
  232        1.737   4.370   0.000   6.106
  233        1.738   4.381   0.000   6.119
  234        1.737   4.369   0.000   6.106
  235        1.737   4.369   0.000   6.106
  236        1.738   4.388   0.000   6.127
  237        1.739   4.384   0.000   6.123
  238        1.737   4.379   0.000   6.117
  239        1.738   4.378   0.000   6.116
  240        1.738   4.381   0.000   6.118
  241        1.738   4.378   0.000   6.115
  242        1.738   4.387   0.000   6.125
  243        1.738   4.388   0.000   6.126
  244        1.738   4.380   0.000   6.118
  245        1.738   4.378   0.000   6.116
  246        1.738   4.377   0.000   6.115
  247        1.738   4.385   0.000   6.123
  248        1.738   4.378   0.000   6.116
  249        1.738   4.385   0.000   6.123
  250        1.738   4.377   0.000   6.115
  251        1.738   4.380   0.000   6.118
  252        1.737   4.381   0.000   6.118
  253        1.738   4.379   0.000   6.117
  254        1.739   4.387   0.000   6.126
  255        1.738   4.377   0.000   6.115
  256        1.739   4.387   0.000   6.125
  257        1.738   4.379   0.000   6.117
--------------------------------------------------
tot        345.5881195.659 112.7011653.948
 


 magnetization (x)
 
# of ion       s       p       d       tot
------------------------------------------
    1       -0.000  -0.000   0.000  -0.000
    2       -0.000  -0.000  -0.002  -0.003
    3       -0.000  -0.000   0.000   0.000
    4       -0.000  -0.000   0.000  -0.000
    5       -0.000  -0.000   0.000   0.000
    6       -0.000  -0.000   0.000  -0.000
    7        0.000  -0.000   0.000   0.000
    8       -0.000  -0.000   0.000  -0.000
    9        0.000  -0.000  -0.000  -0.000
   10       -0.000  -0.000   0.000   0.000
   11        0.000  -0.000  -0.000  -0.000
   12       -0.000  -0.000   0.000   0.000
   13       -0.000  -0.000   0.000   0.000
   14       -0.000  -0.000   0.000   0.000
   15       -0.000  -0.000   0.000   0.000
   16       -0.000  -0.000   0.000   0.000
   17       -0.000  -0.000  -0.000  -0.000
   18       -0.000  -0.000  -0.000  -0.000
   19        0.000   0.000   0.000   0.000
   20        0.005   0.007   0.889   0.900
   21        0.000   0.000   0.001   0.001
   22        0.000  -0.000   0.000   0.000
   23        0.000   0.000   0.000   0.000
   24        0.000   0.000   0.001   0.001
   25        0.000   0.000   0.000   0.000
   26       -0.000  -0.000   0.000   0.000
   27       -0.000  -0.000  -0.000  -0.000
   28        0.000   0.001   0.044   0.045
   29       -0.000   0.000   0.009   0.009
   30        0.000   0.000   0.000   0.000
   31        0.000   0.000   0.000   0.000
   32        0.000   0.000   0.000   0.001
   33        0.000   0.000   0.000   0.000
   34       -0.000   0.000   0.000   0.000
   35       -0.000  -0.000  -0.000  -0.000
   36       -0.000  -0.000  -0.000  -0.000
   37       -0.000  -0.000  -0.000  -0.000
   38       -0.000  -0.000  -0.000  -0.000
   39       -0.000  -0.000   0.000   0.000
   40       -0.000  -0.000   0.000   0.000
   41       -0.000  -0.000   0.000   0.000
   42       -0.000  -0.000   0.000   0.000
   43       -0.000  -0.000   0.000   0.000
   44       -0.000  -0.000   0.000   0.000
   45       -0.000  -0.000  -0.000  -0.000
   46       -0.000  -0.000   0.000   0.000
   47       -0.000  -0.000   0.000   0.000
   48       -0.000  -0.000   0.000   0.000
   49       -0.000  -0.000   0.000   0.000
   50       -0.000  -0.000  -0.000  -0.000
   51        0.000  -0.000  -0.000  -0.000
   52       -0.000   0.000   0.009   0.009
   53        0.000   0.000   0.002   0.002
   54        0.000  -0.000  -0.000  -0.000
   55        0.000   0.000   0.000   0.000
   56       -0.000  -0.000   0.008   0.008
   57        0.000   0.000   0.001   0.001
   58       -0.000  -0.000  -0.000  -0.000
   59       -0.000  -0.000   0.000   0.000
   60        0.000   0.000   0.008   0.008
   61        0.000   0.000   0.003   0.003
   62        0.000  -0.000   0.000   0.000
   63       -0.000  -0.000   0.000  -0.000
   64        0.000   0.000   0.001   0.001
   65        0.000   0.000   0.006   0.006
   66       -0.000  -0.000   0.000  -0.000
   67       -0.000  -0.000   0.000  -0.000
   68        0.000  -0.000   0.000  -0.000
   69        0.000  -0.000   0.000  -0.000
   70        0.000   0.000   0.000   0.000
   71       -0.001  -0.020   0.000  -0.021
   72       -0.000  -0.001   0.000  -0.001
   73       -0.000  -0.000   0.000  -0.000
   74       -0.000  -0.000   0.000  -0.000
   75       -0.000  -0.000   0.000  -0.000
   76       -0.000  -0.000   0.000  -0.000
   77        0.000  -0.000   0.000  -0.000
   78       -0.000  -0.000   0.000  -0.000
   79       -0.000  -0.000   0.000  -0.000
   80        0.000  -0.000   0.000  -0.000
   81        0.000   0.000   0.000   0.000
   82        0.000   0.000   0.000   0.000
   83        0.000   0.000   0.000   0.000
   84       -0.000  -0.000   0.000  -0.000
   85       -0.000  -0.001   0.000  -0.001
   86       -0.000  -0.001   0.000  -0.001
   87        0.000  -0.000   0.000  -0.000
   88       -0.000  -0.002   0.000  -0.002
   89       -0.000  -0.000   0.000  -0.000
   90       -0.000  -0.000   0.000  -0.000
   91       -0.000  -0.000   0.000  -0.000
   92       -0.000  -0.000   0.000  -0.000
   93       -0.000  -0.000   0.000  -0.000
   94       -0.000  -0.001   0.000  -0.001
   95       -0.000  -0.000   0.000  -0.000
   96        0.000   0.000   0.000   0.000
   97       -0.000  -0.003   0.000  -0.004
   98       -0.000  -0.000   0.000  -0.000
   99       -0.000  -0.000   0.000  -0.000
  100       -0.000  -0.000   0.000  -0.000
  101       -0.000  -0.000   0.000  -0.000
  102        0.000   0.000   0.000   0.000
  103       -0.000  -0.000   0.000  -0.000
  104       -0.000  -0.000   0.000  -0.000
  105        0.000  -0.000   0.000  -0.000
  106       -0.000  -0.000   0.000  -0.000
  107       -0.000  -0.000   0.000  -0.000
  108       -0.000  -0.000   0.000  -0.000
  109       -0.000  -0.000   0.000  -0.000
  110        0.000   0.000   0.000   0.000
  111       -0.000  -0.002   0.000  -0.002
  112       -0.000  -0.000   0.000  -0.000
  113       -0.000  -0.000   0.000  -0.000
  114       -0.000  -0.000   0.000  -0.000
  115       -0.000  -0.000   0.000  -0.000
  116       -0.000  -0.000   0.000  -0.000
  117       -0.000  -0.000   0.000  -0.000
  118       -0.001  -0.015   0.000  -0.015
  119       -0.000  -0.000   0.000  -0.000
  120       -0.000  -0.000   0.000  -0.000
  121       -0.000  -0.000   0.000  -0.000
  122       -0.000  -0.000   0.000  -0.000
  123       -0.000  -0.000   0.000  -0.000
  124       -0.000  -0.000   0.000  -0.000
  125       -0.000  -0.000   0.000  -0.000
  126       -0.000  -0.000   0.000  -0.000
  127        0.000   0.000   0.000   0.000
  128       -0.000  -0.000   0.000  -0.000
  129       -0.000  -0.000   0.000  -0.000
  130       -0.000  -0.000   0.000  -0.000
  131       -0.000  -0.000   0.000  -0.000
  132       -0.000  -0.000   0.000  -0.000
  133       -0.000  -0.000   0.000  -0.000
  134       -0.000  -0.000   0.000  -0.000
  135       -0.000  -0.000   0.000  -0.000
  136       -0.000  -0.000   0.000  -0.000
  137        0.000  -0.000   0.000  -0.000
  138       -0.000  -0.000   0.000  -0.000
  139       -0.000  -0.000   0.000  -0.000
  140       -0.000  -0.000   0.000  -0.000
  141       -0.000  -0.000   0.000  -0.000
  142       -0.000  -0.000   0.000  -0.000
  143       -0.000  -0.000   0.000  -0.000
  144       -0.000  -0.000   0.000  -0.000
  145       -0.000  -0.000   0.000  -0.000
  146        0.000   0.000   0.000   0.000
  147        0.000  -0.000   0.000  -0.000
  148       -0.000   0.001   0.000   0.000
  149       -0.000  -0.000   0.000  -0.000
  150       -0.000  -0.000   0.000  -0.000
  151       -0.000  -0.000   0.000  -0.000
  152       -0.000  -0.000   0.000  -0.000
  153       -0.000  -0.000   0.000  -0.000
  154       -0.000   0.000   0.000   0.000
  155       -0.000  -0.000   0.000  -0.000
  156       -0.000  -0.000   0.000  -0.000
  157       -0.000  -0.000   0.000  -0.000
  158       -0.000  -0.000   0.000  -0.000
  159       -0.000  -0.000   0.000  -0.000
  160        0.000  -0.000   0.000  -0.000
  161        0.000  -0.000   0.000  -0.000
  162        0.000  -0.000   0.000  -0.000
  163       -0.000  -0.000   0.000  -0.000
  164       -0.000  -0.000   0.000  -0.000
  165        0.000   0.000   0.000   0.000
  166       -0.000  -0.000   0.000  -0.000
  167       -0.000  -0.000   0.000  -0.000
  168       -0.000  -0.000   0.000  -0.000
  169        0.000   0.000   0.000   0.000
  170        0.000  -0.000   0.000  -0.000
  171       -0.000  -0.000   0.000  -0.000
  172       -0.000  -0.000   0.000  -0.000
  173       -0.000  -0.000   0.000  -0.000
  174       -0.000  -0.000   0.000  -0.000
  175       -0.000  -0.000   0.000  -0.000
  176       -0.000  -0.000   0.000  -0.000
  177       -0.000  -0.000   0.000  -0.000
  178       -0.000  -0.000   0.000  -0.000
  179       -0.000  -0.000   0.000  -0.000
  180       -0.000  -0.000   0.000  -0.000
  181       -0.000  -0.000   0.000  -0.000
  182       -0.000  -0.000   0.000  -0.000
  183       -0.000  -0.000   0.000  -0.000
  184       -0.000  -0.000   0.000  -0.000
  185       -0.000   0.001   0.000   0.000
  186       -0.000  -0.000   0.000  -0.000
  187       -0.000  -0.000   0.000  -0.000
  188       -0.000  -0.000   0.000  -0.000
  189        0.000  -0.000   0.000  -0.000
  190       -0.000  -0.000   0.000  -0.000
  191       -0.000  -0.000   0.000  -0.000
  192       -0.000  -0.000   0.000  -0.000
  193       -0.000  -0.000   0.000  -0.000
  194       -0.000  -0.000   0.000  -0.000
  195       -0.000  -0.000   0.000  -0.000
  196        0.000  -0.000   0.000  -0.000
  197       -0.000  -0.000   0.000  -0.000
  198       -0.000  -0.000   0.000  -0.000
  199       -0.000  -0.000   0.000  -0.000
  200        0.000  -0.000   0.000  -0.000
  201       -0.000   0.000   0.000   0.000
  202        0.000   0.000   0.000   0.000
  203       -0.000   0.002   0.000   0.001
  204       -0.000  -0.000   0.000  -0.000
  205       -0.000  -0.000   0.000  -0.000
  206        0.000  -0.000   0.000  -0.000
  207       -0.000  -0.000   0.000  -0.000
  208       -0.000   0.000   0.000   0.000
  209       -0.000  -0.000   0.000  -0.000
  210        0.000   0.000   0.000   0.000
  211        0.000   0.000   0.000   0.000
  212       -0.000  -0.000   0.000  -0.000
  213       -0.000  -0.000   0.000  -0.000
  214       -0.000  -0.006   0.000  -0.006
  215       -0.000  -0.000   0.000  -0.000
  216       -0.000  -0.000   0.000  -0.000
  217       -0.000  -0.000   0.000  -0.000
  218       -0.000  -0.000   0.000  -0.000
  219       -0.000  -0.000   0.000  -0.000
  220       -0.000  -0.000   0.000  -0.000
  221       -0.000  -0.000   0.000  -0.000
  222       -0.000  -0.000   0.000  -0.000
  223       -0.000  -0.000   0.000  -0.000
  224       -0.000  -0.000   0.000  -0.000
  225       -0.000  -0.000   0.000  -0.000
  226       -0.000  -0.000   0.000  -0.000
  227       -0.000  -0.000   0.000  -0.000
  228       -0.000  -0.000   0.000  -0.000
  229       -0.000  -0.000   0.000  -0.000
  230        0.000  -0.000   0.000  -0.000
  231       -0.000  -0.000   0.000  -0.000
  232       -0.000  -0.000   0.000  -0.000
  233       -0.000  -0.000   0.000  -0.000
  234       -0.000  -0.000   0.000  -0.000
  235       -0.000  -0.000   0.000  -0.000
  236       -0.000  -0.000   0.000  -0.000
  237       -0.000  -0.000   0.000  -0.000
  238       -0.000  -0.000   0.000  -0.000
  239       -0.000  -0.000   0.000  -0.000
  240       -0.000  -0.000   0.000  -0.000
  241       -0.000  -0.000   0.000  -0.000
  242       -0.000  -0.000   0.000  -0.000
  243       -0.000  -0.000   0.000  -0.000
  244       -0.000  -0.000   0.000  -0.000
  245       -0.000  -0.000   0.000  -0.000
  246       -0.000  -0.000   0.000  -0.000
  247       -0.000  -0.000   0.000  -0.000
  248       -0.000  -0.000   0.000  -0.000
  249       -0.000  -0.000   0.000  -0.000
  250       -0.000  -0.000   0.000  -0.000
  251       -0.000  -0.000   0.000  -0.000
  252       -0.000  -0.000   0.000  -0.000
  253       -0.000  -0.000   0.000  -0.000
  254       -0.000  -0.000   0.000  -0.000
  255       -0.000  -0.000   0.000  -0.000
  256       -0.000  -0.000   0.000  -0.000
  257       -0.000  -0.000   0.000  -0.000
--------------------------------------------------
tot          0.001  -0.045   0.980   0.937
 

 total amount of memory used by VASP MPI-rank0   291466. kBytes
=======================================================================

   base      :      30000. kBytes
   nonlr-proj:      49431. kBytes
   fftplans  :      27976. kBytes
   grid      :      34041. kBytes
   one-center:       1026. kBytes
   wavefun   :     148992. kBytes
 
  
  
 General timing and accounting informations for this job:
 ========================================================
  
                  Total CPU time used (sec):     5125.999
                            User time (sec):     4709.745
                          System time (sec):      416.254
                         Elapsed time (sec):     5168.924
  
                   Maximum memory used (kb):      628096.
                   Average memory used (kb):           0.
  
                          Minor page faults:       375314
                          Major page faults:           14
                 Voluntary context switches:        36548
