LTO                                     
           1
     7.892672    0.000046   -0.000005
     0.000048    7.783241   -0.000187
    -0.000002   -0.000186    7.687259
   Ti   O    F 
   8   8  16
Direct configuration=     1
   0.00021693  0.00033123  0.99999955
   0.00102274  0.99996251  0.49999963
   0.00148870  0.49986190  0.99999981
   0.97851716  0.49992868  0.49999986
   0.50029285  0.98728930  0.00000037
   0.50039592  0.00327861  0.50000215
   0.50056435  0.51120792  0.99999925
   0.49887727  0.49815808  0.49999817
   0.76128005  0.49938874  0.50000025
   0.49892657  0.24778965  0.50000238
   0.50066631  0.75071000  0.99999838
   0.49894294  0.75225478  0.49999915
   0.50053961  0.99794829  0.24989717
   0.50053800  0.99793940  0.75010171
   0.49920799  0.50188899  0.24805536
   0.49920927  0.50187661  0.75194776
   0.24282790  0.00302950  0.00000053
   0.23645938  0.00030192  0.49999955
   0.24345588  0.49704388  0.99999983
   0.23549274  0.49939859  0.49999856
   0.75764810  0.00304670  0.99999832
   0.76512229  0.00035335  0.50000094
   0.75905011  0.49731558  0.00000251
   0.99964319  0.25092746  0.99999796
   0.00249787  0.24417203  0.50000015
   0.99961735  0.74927830  0.00000056
   0.00239506  0.75574231  0.49999927
   0.50077115  0.24910176  0.00000184
   0.00016490  0.99979333  0.25708794
   0.00016663  0.99980771  0.74291122
   0.00699925  0.50043288  0.25258032
   0.00700154  0.50043999  0.74741952
