 vasp.5.4.4.18Apr17-6-g9f103f2a35 (build Apr 30 2017 20:10:35) complex          
  
 executed on             LinuxIFC date 2017.08.07  08:52:04
 running on   64 total cores
 distrk:  each k-point on   64 cores,    1 groups
 distr:  one band on NCORES_PER_BAND=   8 cores,    8 groups


--------------------------------------------------------------------------------------------------------


 INCAR:
 POTCAR:   PAW_PBE Ti_pv 07Sep2000                
 POTCAR:   PAW_PBE O 08Apr2002                    
 POTCAR:    PAW_PBE F 08Apr2002                   
 POTCAR:   PAW_PBE Ti_pv 07Sep2000                
   VRHFIN =Ti: d3 s1                                                            
   LEXCH  = PE                                                                  
   EATOM  =  1042.3781 eV,   76.6126 Ry                                         
                                                                                
   TITEL  = PAW_PBE Ti_pv 07Sep2000                                             
   LULTRA =        F    use ultrasoft PP ?                                      
   IUNSCR =        1    unscreen: 0-lin 1-nonlin 2-no                           
   RPACOR =    2.200    partial core radius                                     
   POMASS =   47.880; ZVAL   =   10.000    mass and valenz                      
   RCORE  =    2.500    outmost cutoff radius                                   
   RWIGS  =    2.500; RWIGS  =    1.323    wigner-seitz radius (au A)           
   ENMAX  =  222.338; ENMIN  =  166.753 eV                                      
   RCLOC  =    1.701    cutoff for local pot                                    
   LCOR   =        T    correct aug charges                                     
   LPAW   =        T    paw PP                                                  
   EAUG   =  482.848                                                            
   DEXC   =    -.008                                                            
   RMAX   =    3.092    core radius for proj-oper                               
   RAUG   =    1.300    factor for augmentation sphere                          
   RDEP   =    2.538    radius for radial grids                                 
   QCUT   =   -4.042; QGAM   =    8.085    optimization parameters              
                                                                                
   Description                                                                  
     l     E      TYP  RCUT    TYP  RCUT                                        
     1   .000     23  2.300                                                     
     1  -.100     23  2.300                                                     
     2   .000     23  2.500                                                     
     2   .000     23  2.500                                                     
     0   .000     23  2.500                                                     
     0  1.500     23  2.500                                                     
     3   .000      7   .000                                                     
  local pseudopotential read in
  partial core-charges read in
  atomic valenz-charges read in
  non local Contribution for L=           1  read in
    real space projection operators read in
  non local Contribution for L=           1  read in
    real space projection operators read in
  non local Contribution for L=           2  read in
    real space projection operators read in
  non local Contribution for L=           2  read in
    real space projection operators read in
  non local Contribution for L=           0  read in
    real space projection operators read in
  non local Contribution for L=           0  read in
    real space projection operators read in
    PAW grid and wavefunctions read in
 
   number of l-projection  operators is LMAX  =           6
   number of lm-projection operators is LMMAX =          18
 
 POTCAR:   PAW_PBE O 08Apr2002                    
   VRHFIN =O: s2p4                                                              
   LEXCH  = PE                                                                  
   EATOM  =   432.3788 eV,   31.7789 Ry                                         
                                                                                
   TITEL  = PAW_PBE O 08Apr2002                                                 
   LULTRA =        F    use ultrasoft PP ?                                      
   IUNSCR =        0    unscreen: 0-lin 1-nonlin 2-no                           
   RPACOR =     .000    partial core radius                                     
   POMASS =   16.000; ZVAL   =    6.000    mass and valenz                      
   RCORE  =    1.520    outmost cutoff radius                                   
   RWIGS  =    1.550; RWIGS  =     .820    wigner-seitz radius (au A)           
   ENMAX  =  400.000; ENMIN  =  300.000 eV                                      
   ICORE  =        2    local potential                                         
   LCOR   =        T    correct aug charges                                     
   LPAW   =        T    paw PP                                                  
   EAUG   =  605.392                                                            
   DEXC   =     .000                                                            
   RMAX   =    2.264    core radius for proj-oper                               
   RAUG   =    1.300    factor for augmentation sphere                          
   RDEP   =    1.550    radius for radial grids                                 
   QCUT   =   -5.520; QGAM   =   11.041    optimization parameters              
                                                                                
   Description                                                                  
     l     E      TYP  RCUT    TYP  RCUT                                        
     0   .000     23  1.200                                                     
     0  -.700     23  1.200                                                     
     1   .000     23  1.520                                                     
     1   .600     23  1.520                                                     
     2   .000      7  1.500                                                     
  local pseudopotential read in
  atomic valenz-charges read in
  non local Contribution for L=           0  read in
    real space projection operators read in
  non local Contribution for L=           0  read in
    real space projection operators read in
  non local Contribution for L=           1  read in
    real space projection operators read in
  non local Contribution for L=           1  read in
    real space projection operators read in
    PAW grid and wavefunctions read in
 
   number of l-projection  operators is LMAX  =           4
   number of lm-projection operators is LMMAX =           8
 
 POTCAR:    PAW_PBE F 08Apr2002                   
   VRHFIN =F: s2p5                                                              
   LEXCH  = PE                                                                  
   EATOM  =   659.6475 eV,   48.4827 Ry                                         
                                                                                
   TITEL  = PAW_PBE F 08Apr2002                                                 
   LULTRA =        F    use ultrasoft PP ?                                      
   IUNSCR =        1    unscreen: 0-lin 1-nonlin 2-no                           
   RPACOR =    1.200    partial core radius                                     
   POMASS =   18.998; ZVAL   =    7.000    mass and valenz                      
   RCORE  =    1.520    outmost cutoff radius                                   
   RWIGS  =    1.500; RWIGS  =    0.794    wigner-seitz radius (au A)           
   ENMAX  =  400.000; ENMIN  =  300.000 eV                                      
   ICORE  =        2    local potential                                         
   LCOR   =        T    correct aug charges                                     
   LPAW   =        T    paw PP                                                  
   EAUG   =  613.614                                                            
   RMAX   =    1.555    core radius for proj-oper                               
   RAUG   =    1.300    factor for augmentation sphere                          
   RDEP   =    1.539    radius for radial grids                                 
   RDEPT  =    1.299    core radius for aug-charge                              
                                                                                
   Atomic configuration                                                         
    4 entries                                                                   
     n  l   j            E        occ.                                          
     1  0  0.50      -663.3661   2.0000                                         
     2  0  0.50       -29.8995   2.0000                                         
     2  1  0.50       -11.1114   5.0000                                         
     3  2  1.50       -10.8847   0.0000                                         
   Description                                                                  
     l       E           TYP  RCUT    TYP  RCUT                                 
     0    -29.8995018     23  1.200                                             
     0     -9.5240782     23  1.200                                             
     1    -11.1113914     23  1.520                                             
     1      1.3605826     23  1.520                                             
     2    -10.8846608      7  1.500                                             
  local pseudopotential read in
  partial core-charges read in
  partial kinetic energy density read in
  atomic valenz-charges read in
  non local Contribution for L=           0  read in
    real space projection operators read in
  non local Contribution for L=           0  read in
    real space projection operators read in
  non local Contribution for L=           1  read in
    real space projection operators read in
  non local Contribution for L=           1  read in
    real space projection operators read in
    PAW grid and wavefunctions read in
 
   number of l-projection  operators is LMAX  =           4
   number of lm-projection operators is LMMAX =           8
 
 Optimization of the real space projectors (new method)

 maximal supplied QI-value         = 15.12
 optimisation between [QCUT,QGAM] = [ 13.45, 27.06] = [ 50.69,205.06] Ry 
 Optimized for a Real-space Cutoff    1.49 Angstroem

   l    n(q)    QCUT    max X(q) W(low)/X(q) W(high)/X(q)  e(spline) 
   1     12    13.455     4.841    0.13E-05    0.83E-06    0.56E-07
   1     12    13.455     5.701    0.32E-04    0.25E-04    0.17E-06
   2     11    13.455     4.569    0.64E-05    0.34E-05    0.50E-07
   2     11    13.455    32.276    0.49E-04    0.38E-04    0.46E-06
   0     12    13.455    30.046    0.17E-04    0.41E-05    0.51E-07
   0     12    13.455    45.433    0.12E-04    0.27E-04    0.38E-06
 Optimization of the real space projectors (new method)

 maximal supplied QI-value         = 24.76
 optimisation between [QCUT,QGAM] = [ 13.37, 26.98] = [ 50.04,203.89] Ry 
 Optimized for a Real-space Cutoff    1.17 Angstroem

   l    n(q)    QCUT    max X(q) W(low)/X(q) W(high)/X(q)  e(spline) 
   0      9    13.368     4.192    0.20E-04    0.58E-05    0.56E-07
   0      9    13.368     8.473    0.60E-04    0.52E-04    0.21E-06
   1      9    13.368     2.474    0.22E-04    0.17E-04    0.28E-07
   1      9    13.368     3.912    0.94E-04    0.97E-04    0.20E-06
 Optimization of the real space projectors (new method)

 maximal supplied QI-value         = 24.76
 optimisation between [QCUT,QGAM] = [ 13.37, 26.98] = [ 50.04,203.89] Ry 
 Optimized for a Real-space Cutoff    1.17 Angstroem

   l    n(q)    QCUT    max X(q) W(low)/X(q) W(high)/X(q)  e(spline) 
   0      9    13.368    14.049    0.39E-04    0.34E-04    0.16E-06
   0      9    13.368     8.945    0.54E-04    0.47E-04    0.20E-06
   1      9    13.368     7.086    0.99E-04    0.10E-03    0.23E-06
   1      9    13.368     6.747    0.86E-04    0.89E-04    0.21E-06

 ----------------------------------------------------------------------------- 
|                                                                             |
|  ADVICE TO THIS USER RUNNING 'VASP/VAMP'   (HEAR YOUR MASTER'S VOICE ...):  |
|                                                                             |
|      You enforced a specific xc-type in the INCAR file,                     |
|      a different type was found on the POTCAR file                          |
|          I HOPE YOU KNOW, WHAT YOU ARE  DOING                               |
|                                                                             |
 ----------------------------------------------------------------------------- 

 PAW_PBE Ti_pv 07Sep2000                :
 energy of atom  1       EATOM=-1042.3781
 kinetic energy error for atom=    0.0006 (will be added to EATOM!!)
 PAW_PBE O 08Apr2002                    :
 energy of atom  2       EATOM= -432.3788
 kinetic energy error for atom=    0.0091 (will be added to EATOM!!)
  PAW_PBE F 08Apr2002                   :
 energy of atom  3       EATOM= -659.6475
 kinetic energy error for atom=    0.0140 (will be added to EATOM!!)
 
 
 POSCAR: TiOF2 2x2x2 config 0406                 
  positions in direct lattice
  velocities in cartesian coordinates
 exchange correlation table for  LEXCH =       14
   RHO(1)=    0.500       N(1)  =     2000
   RHO(2)=  100.500       N(2)  =     4000

 VTST: version 3.1, (03/28/14)

 CHAIN: initializing optimizer
 
 OPT: Using VASP QUASI-newton optimizer
 CHAIN: Read ICHAIN            0
 
 POSCAR: TiOF2 2x2x2 config 0406                 
  positions in direct lattice
  velocities in cartesian coordinates
 


--------------------------------------------------------------------------------------------------------


 ion  position               nearest neighbor table
   1  0.000  0.000  1.000-  21 1.91  17 1.91  24 1.95  26 1.95  30 1.98  29 1.98
   2  0.001  1.000  0.500-  18 1.86  22 1.86  30 1.87  29 1.87  25 1.90  27 1.90
   3  0.001  0.500  1.000-  19 1.91  23 1.91  24 1.94  26 1.94  32 1.94  31 1.94
   4  0.979  0.500  0.500-   9 1.71  31 1.92  32 1.92  25 2.00  27 2.00  20 2.03
   5  0.500  0.987  0.000-  11 1.84  13 1.92  14 1.92  21 2.03  17 2.04  28 2.04
   6  0.500  0.003  0.500-  10 1.90  14 1.92  13 1.92  12 1.95  18 2.08  22 2.09
   7  0.501  0.511  1.000-  11 1.86  16 1.91  15 1.91  19 2.03  28 2.04  23 2.04
   8  0.499  0.498  0.500-  15 1.94  16 1.94  10 1.95  12 1.98   9 2.07  20 2.08
   9  0.761  0.499  0.500-   4 1.71   8 2.07
  10  0.499  0.248  0.500-   6 1.90   8 1.95
  11  0.501  0.751  1.000-   5 1.84   7 1.86
  12  0.499  0.752  0.500-   6 1.95   8 1.98
  13  0.501  0.998  0.250-   5 1.92   6 1.92
  14  0.501  0.998  0.750-   5 1.92   6 1.92
  15  0.499  0.502  0.248-   7 1.91   8 1.94
  16  0.499  0.502  0.752-   7 1.91   8 1.94
  17  0.243  0.003  0.000-   1 1.91   5 2.04
  18  0.236  0.000  0.500-   2 1.86   6 2.08
  19  0.243  0.497  1.000-   3 1.91   7 2.03
  20  0.235  0.499  0.500-   4 2.03   8 2.08
  21  0.758  0.003  1.000-   1 1.91   5 2.03
  22  0.765  0.000  0.500-   2 1.86   6 2.09
  23  0.759  0.497  0.000-   3 1.91   7 2.04
  24  1.000  0.251  1.000-   3 1.94   1 1.95
  25  0.002  0.244  0.500-   2 1.90   4 2.00
  26  1.000  0.749  0.000-   3 1.94   1 1.95
  27  0.002  0.756  0.500-   2 1.90   4 2.00
  28  0.501  0.249  0.000-   5 2.04   7 2.04
  29  0.000  1.000  0.257-   2 1.87   1 1.98
  30  0.000  1.000  0.743-   2 1.87   1 1.98
  31  0.007  0.500  0.253-   4 1.92   3 1.94
  32  0.007  0.500  0.747-   4 1.92   3 1.94
 

IMPORTANT INFORMATION: All symmetrisations will be switched off!
NOSYMM: (Re-)initialisation of all symmetry stuff for point group C_1.

 
 
 KPOINTS: Title                                   

Automatic generation of k-mesh.
Space group operators:
 irot       det(A)        alpha          n_x          n_y          n_z        tau_x        tau_y        tau_z
    1     1.000000     0.000000     1.000000     0.000000     0.000000     0.000000     0.000000     0.000000
 
 Subroutine IBZKPT returns following result:
 ===========================================
 
 Found     32 irreducible k-points:
 
 Following reciprocal coordinates:
            Coordinates               Weight
  0.125000  0.125000  0.125000      2.000000
  0.375000  0.125000  0.125000      2.000000
 -0.375000  0.125000  0.125000      2.000000
 -0.125000  0.125000  0.125000      2.000000
  0.125000  0.375000  0.125000      2.000000
  0.375000  0.375000  0.125000      2.000000
 -0.375000  0.375000  0.125000      2.000000
 -0.125000  0.375000  0.125000      2.000000
  0.125000 -0.375000  0.125000      2.000000
  0.375000 -0.375000  0.125000      2.000000
 -0.375000 -0.375000  0.125000      2.000000
 -0.125000 -0.375000  0.125000      2.000000
  0.125000 -0.125000  0.125000      2.000000
  0.375000 -0.125000  0.125000      2.000000
 -0.375000 -0.125000  0.125000      2.000000
 -0.125000 -0.125000  0.125000      2.000000
  0.125000  0.125000  0.375000      2.000000
  0.375000  0.125000  0.375000      2.000000
 -0.375000  0.125000  0.375000      2.000000
 -0.125000  0.125000  0.375000      2.000000
  0.125000  0.375000  0.375000      2.000000
  0.375000  0.375000  0.375000      2.000000
 -0.375000  0.375000  0.375000      2.000000
 -0.125000  0.375000  0.375000      2.000000
  0.125000 -0.375000  0.375000      2.000000
  0.375000 -0.375000  0.375000      2.000000
 -0.375000 -0.375000  0.375000      2.000000
 -0.125000 -0.375000  0.375000      2.000000
  0.125000 -0.125000  0.375000      2.000000
  0.375000 -0.125000  0.375000      2.000000
 -0.375000 -0.125000  0.375000      2.000000
 -0.125000 -0.125000  0.375000      2.000000
 
 Following cartesian coordinates:
            Coordinates               Weight
  0.015837  0.016060  0.016261      2.000000
  0.047512  0.016060  0.016261      2.000000
 -0.047513  0.016061  0.016261      2.000000
 -0.015838  0.016061  0.016261      2.000000
  0.015837  0.048181  0.016262      2.000000
  0.047512  0.048181  0.016262      2.000000
 -0.047513  0.048181  0.016262      2.000000
 -0.015838  0.048181  0.016262      2.000000
  0.015838 -0.048180  0.016260      2.000000
  0.047513 -0.048180  0.016260      2.000000
 -0.047512 -0.048180  0.016259      2.000000
 -0.015837 -0.048180  0.016260      2.000000
  0.015838 -0.016060  0.016260      2.000000
  0.047513 -0.016060  0.016260      2.000000
 -0.047512 -0.016059  0.016260      2.000000
 -0.015837 -0.016060  0.016260      2.000000
  0.015837  0.016061  0.048782      2.000000
  0.047512  0.016061  0.048782      2.000000
 -0.047512  0.016062  0.048782      2.000000
 -0.015838  0.016061  0.048782      2.000000
  0.015837  0.048182  0.048783      2.000000
  0.047512  0.048181  0.048783      2.000000
 -0.047513  0.048182  0.048783      2.000000
 -0.015838  0.048182  0.048783      2.000000
  0.015838 -0.048179  0.048781      2.000000
  0.047513 -0.048180  0.048781      2.000000
 -0.047512 -0.048179  0.048781      2.000000
 -0.015837 -0.048179  0.048781      2.000000
  0.015838 -0.016059  0.048782      2.000000
  0.047513 -0.016059  0.048782      2.000000
 -0.047512 -0.016059  0.048782      2.000000
 -0.015837 -0.016059  0.048782      2.000000
 


--------------------------------------------------------------------------------------------------------




 Dimension of arrays:
   k-points           NKPTS =     32   k-points in BZ     NKDIM =     32   number of bands    NBANDS=    160
   number of dos      NEDOS =   3001   number of ions     NIONS =     32
   non local maximal  LDIM  =      6   non local SUM 2l+1 LMDIM =     18
   total plane-waves  NPLWV = 343000
   max r-space proj   IRMAX =  10071   max aug-charges    IRDMAX= 225769
   dimension x,y,z NGX =    70 NGY =   70 NGZ =   70
   dimension x,y,z NGXF=   140 NGYF=  140 NGZF=  140
   support grid    NGXF=   280 NGYF=  280 NGZF=  280
   ions per type =               8   8  16
   NGX,Y,Z   is equivalent  to a cutoff of  14.74, 14.95, 15.14 a.u.
   NGXF,Y,Z  is equivalent  to a cutoff of  29.49, 29.90, 30.28 a.u.

 SYSTEM =  LTO                                     
 POSCAR =  TiOF2 2x2x2 config 0406                 

 Startparameter for this run:
   NWRITE =      2    write-flag & timer
   PREC   = accura    normal or accurate (medium, high low for compatibility)
   ISTART =      1    job   : 0-new  1-cont  2-samecut
   ICHARG =      0    charge: 1-file 2-atom 10-const
   ISPIN  =      2    spin polarized calculation?
   LNONCOLLINEAR =      F non collinear calculations
   LSORBIT =      F    spin-orbit coupling
   INIWAV =      1    electr: 0-lowe 1-rand  2-diag
   LASPH  =      T    aspherical Exc in radial PAW
   METAGGA=      F    non-selfconsistent MetaGGA calc.

 Electronic Relaxation 1
   ENCUT  =  700.0 eV  51.45 Ry    7.17 a.u.  17.03 16.79 16.58*2*pi/ulx,y,z
   ENINI  =  700.0     initial cutoff
   ENAUG  =  613.6 eV  augmentation charge cutoff
   NELM   =     60;   NELMIN=  2; NELMDL=  0     # of ELM steps 
   EDIFF  = 0.1E-05   stopping-criterion for ELM
   LREAL  =      T    real-space projection
   NLSPLINE    = F    spline interpolate recip. space projectors
   LCOMPAT=      F    compatible to vasp.4.4
   GGA_COMPAT  = T    GGA compatible to vasp.4.4-vasp.4.6
   LMAXPAW     = -100 max onsite density
   LMAXMIX     =    4 max onsite mixed and CHGCAR
   VOSKOWN=      0    Vosko Wilk Nusair interpolation
   ROPT   =   -0.00010  -0.00010  -0.00010
 Ionic relaxation
   EDIFFG = -.1E-01   stopping-criterion for IOM
   NSW    =    100    number of steps for IOM
   NBLOCK =      1;   KBLOCK =    100    inner block; outer block 
   IBRION =      1    ionic relax: 0-MD 1-quasi-New 2-CG
   NFREE  =      0    steps in history (QN), initial steepest desc. (CG)
   ISIF   =      3    stress and relaxation
   IWAVPR =     11    prediction:  0-non 1-charg 2-wave 3-comb
   ISYM   =      0    0-nonsym 1-usesym 2-fastsym
   LCORR  =      T    Harris-Foulkes like correction to forces

   POTIM  = 0.5000    time-step for ionic-motion
   TEIN   =    0.0    initial temperature
   TEBEG  =    0.0;   TEEND  =   0.0 temperature during run
   SMASS  =  -3.00    Nose mass-parameter (am)
   estimated Nose-frequenzy (Omega)   =  0.10E-29 period in steps =****** mass=  -0.142E-26a.u.
   SCALEE = 1.0000    scale energy and forces
   NPACO  =    256;   APACO  = 16.0  distance and # of slots for P.C.
   PSTRESS=    0.0 pullay stress

  Mass of Ions in am
   POMASS =  47.88 16.00 19.00
  Ionic Valenz
   ZVAL   =  10.00  6.00  7.00
  Atomic Wigner-Seitz radii
   RWIGS  =  -1.00 -1.00 -1.00
  virtual crystal weights 
   VCA    =   1.00  1.00  1.00
   NELECT =     240.0000    total number of electrons
   NUPDOWN=      -1.0000    fix difference up-down

 DOS related values:
   EMIN   =  10.00;   EMAX   =-10.00  energy-range for DOS
   EFERMI =   0.00
   ISMEAR =     0;   SIGMA  =   0.01  broadening in eV -4-tet -1-fermi 0-gaus

 Electronic relaxation 2 (details)
   IALGO  =     38    algorithm
   LDIAG  =      T    sub-space diagonalisation (order eigenvalues)
   LSUBROT=      F    optimize rotation matrix (better conditioning)
   TURBO    =      0    0=normal 1=particle mesh
   IRESTART =      0    0=no restart 2=restart with 2 vectors
   NREBOOT  =      0    no. of reboots
   NMIN     =      0    reboot dimension
   EREF     =   0.00    reference energy to select bands
   IMIX   =      4    mixing-type and parameters
     AMIX     =   0.40;   BMIX     =  1.00
     AMIX_MAG =   1.60;   BMIX_MAG =  1.00
     AMIN     =   0.10
     WC   =   100.;   INIMIX=   1;  MIXPRE=   1;  MAXMIX= -45

 Intra band minimization:
   WEIMIN = 0.0010     energy-eigenvalue tresh-hold
   EBREAK =  0.16E-08  absolut break condition
   DEPER  =   0.30     relativ break condition  

   TIME   =   0.40     timestep for ELM

  volume/ion in A,a.u.               =      14.76        99.59
  Fermi-wavevector in a.u.,A,eV,Ry     =   1.306451  2.468835 23.222628  1.706815
  Thomas-Fermi vector in A             =   2.437252
 
 Write flags
   LWAVE        =      T    write WAVECAR
   LDOWNSAMPLE  =      F    k-point downsampling of WAVECAR
   LCHARG       =      T    write CHGCAR
   LVTOT        =      F    write LOCPOT, total local potential
   LVHAR        =      F    write LOCPOT, Hartree potential only
   LELF         =      F    write electronic localiz. function (ELF)
   LORBIT       =     11    0 simple, 1 ext, 2 COOP (PROOUT), +10 PAW based schemes


 Dipole corrections
   LMONO  =      F    monopole corrections only (constant potential shift)
   LDIPOL =      F    correct potential (dipole corrections)
   IDIPOL =      0    1-x, 2-y, 3-z, 4-all directions 
   EPSILON=  1.0000000 bulk dielectric constant

 LDA+U is selected, type is set to LDAUTYPE =  2
   angular momentum for each species LDAUL =     2   -1   -1
   U (eV)           for each species LDAUU =   4.2  0.0  0.0
   J (eV)           for each species LDAUJ =   0.0  0.0  0.0
 Exchange correlation treatment:
   GGA     =    PS    GGA type
   LEXCH   =    14    internal setting for exchange type
   VOSKOWN=      0    Vosko Wilk Nusair interpolation
   LHFCALC =     F    Hartree Fock is set to
   LHFONE  =     F    Hartree Fock one center treatment
   AEXX    =    0.0000 exact exchange contribution

 Linear response parameters
   LEPSILON=     F    determine dielectric tensor
   LRPA    =     F    only Hartree local field effects (RPA)
   LNABLA  =     F    use nabla operator in PAW spheres
   LVEL    =     F    velocity operator in full k-point grid
   LINTERFAST=   F  fast interpolation
   KINTER  =     0    interpolate to denser k-point grid
   CSHIFT  =0.1000    complex shift for real part using Kramers Kronig
   OMEGAMAX=  -1.0    maximum frequency
   DEG_THRESHOLD= 0.2000000E-02 threshold for treating states as degnerate
   RTIME   =   -0.100 relaxation time in fs
  (WPLASMAI=    0.000 imaginary part of plasma frequency in eV, 0.658/RTIME)
   DFIELD  = 0.0000000 0.0000000 0.0000000 field for delta impulse in time
 
 Orbital magnetization related:
   ORBITALMAG=     F  switch on orbital magnetization
   LCHIMAG   =     F  perturbation theory with respect to B field
   DQ        =  0.001000  dq finite difference perturbation B field
   LLRAUG    =     F  two centre corrections for induced B field



--------------------------------------------------------------------------------------------------------


 quasi-Newton-method for relaxation of ions
 charge density and potential will be updated during run
 spin polarized calculation
 Variant of blocked Davidson
 Davidson routine will perform the subspace rotation
 perform sub-space diagonalisation
    after iterative eigenvector-optimisation
 modified Broyden-mixing scheme, WC =      100.0
 initial mixing is a Kerker type mixing with AMIX =  0.4000 and BMIX =      1.0000
 Hartree-type preconditioning will be used
 using additional bands           40
 real space projection scheme for non local part
 use partial core corrections
 calculate Harris-corrections to forces 
   (improved forces if not selfconsistent)
 use gradient corrections 
 use of overlap-Matrix (Vanderbilt PP)
 Gauss-broadening in eV      SIGMA  =   0.01


--------------------------------------------------------------------------------------------------------


  energy-cutoff  :      700.00
  volume of cell :      472.23
      direct lattice vectors                 reciprocal lattice vectors
     7.892671797  0.000045777 -0.000004612     0.126699808 -0.000000786  0.000000040
     0.000048271  7.783241228 -0.000186948    -0.000000745  0.128481178  0.000003101
    -0.000002446 -0.000185541  7.687259307     0.000000076  0.000003125  0.130085374

  length of vectors
     7.892671797  7.783241231  7.687259309     0.126699808  0.128481178  0.130085374


 
 old parameters found on file WAVECAR:
  energy-cutoff  :      700.00
  volume of cell :      472.26
      direct lattice vectors                 reciprocal lattice vectors
     7.892745097  0.000113166 -0.000006582     0.126698631 -0.000001867  0.000000072
     0.000114723  7.783559322 -0.000261364    -0.000001842  0.128475927  0.000004329
    -0.000004365 -0.000259046  7.687352310     0.000000108  0.000004368  0.130083800

  length of vectors

 
 k-points in units of 2pi/SCALE and weight: Title                                   
   0.01583739  0.01606044  0.01626106       0.031
   0.04751234  0.01606024  0.01626107       0.031
  -0.04751251  0.01606083  0.01626104       0.031
  -0.01583756  0.01606064  0.01626105       0.031
   0.01583721  0.04818073  0.01626184       0.031
   0.04751216  0.04818054  0.01626185       0.031
  -0.04751270  0.04818113  0.01626182       0.031
  -0.01583775  0.04818093  0.01626183       0.031
   0.01583776 -0.04818015  0.01625951       0.031
   0.04751272 -0.04818035  0.01625952       0.031
  -0.04751214 -0.04817976  0.01625949       0.031
  -0.01583719 -0.04817995  0.01625950       0.031
   0.01583758 -0.01605985  0.01626029       0.031
   0.04751253 -0.01606005  0.01626030       0.031
  -0.04751233 -0.01605946  0.01626027       0.031
  -0.01583737 -0.01605966  0.01626028       0.031
   0.01583741  0.01606122  0.04878241       0.031
   0.04751236  0.01606102  0.04878242       0.031
  -0.04751249  0.01606161  0.04878239       0.031
  -0.01583754  0.01606142  0.04878240       0.031
   0.01583723  0.04818152  0.04878318       0.031
   0.04751218  0.04818132  0.04878319       0.031
  -0.04751268  0.04818191  0.04878316       0.031
  -0.01583773  0.04818171  0.04878317       0.031
   0.01583778 -0.04817937  0.04878086       0.031
   0.04751274 -0.04817956  0.04878087       0.031
  -0.04751212 -0.04817898  0.04878084       0.031
  -0.01583717 -0.04817917  0.04878085       0.031
   0.01583760 -0.01605907  0.04878163       0.031
   0.04751255 -0.01605927  0.04878164       0.031
  -0.04751231 -0.01605868  0.04878161       0.031
  -0.01583735 -0.01605888  0.04878162       0.031
 
 k-points in reciprocal lattice and weights: Title                                   
   0.12500000  0.12500000  0.12500000       0.031
   0.37500000  0.12500000  0.12500000       0.031
  -0.37500000  0.12500000  0.12500000       0.031
  -0.12500000  0.12500000  0.12500000       0.031
   0.12500000  0.37500000  0.12500000       0.031
   0.37500000  0.37500000  0.12500000       0.031
  -0.37500000  0.37500000  0.12500000       0.031
  -0.12500000  0.37500000  0.12500000       0.031
   0.12500000 -0.37500000  0.12500000       0.031
   0.37500000 -0.37500000  0.12500000       0.031
  -0.37500000 -0.37500000  0.12500000       0.031
  -0.12500000 -0.37500000  0.12500000       0.031
   0.12500000 -0.12500000  0.12500000       0.031
   0.37500000 -0.12500000  0.12500000       0.031
  -0.37500000 -0.12500000  0.12500000       0.031
  -0.12500000 -0.12500000  0.12500000       0.031
   0.12500000  0.12500000  0.37500000       0.031
   0.37500000  0.12500000  0.37500000       0.031
  -0.37500000  0.12500000  0.37500000       0.031
  -0.12500000  0.12500000  0.37500000       0.031
   0.12500000  0.37500000  0.37500000       0.031
   0.37500000  0.37500000  0.37500000       0.031
  -0.37500000  0.37500000  0.37500000       0.031
  -0.12500000  0.37500000  0.37500000       0.031
   0.12500000 -0.37500000  0.37500000       0.031
   0.37500000 -0.37500000  0.37500000       0.031
  -0.37500000 -0.37500000  0.37500000       0.031
  -0.12500000 -0.37500000  0.37500000       0.031
   0.12500000 -0.12500000  0.37500000       0.031
   0.37500000 -0.12500000  0.37500000       0.031
  -0.37500000 -0.12500000  0.37500000       0.031
  -0.12500000 -0.12500000  0.37500000       0.031
 
 position of ions in fractional coordinates (direct lattice) 
   0.00021693  0.00033123  0.99999955
   0.00102274  0.99996251  0.49999963
   0.00148870  0.49986190  0.99999981
   0.97851716  0.49992868  0.49999986
   0.50029285  0.98728930  0.00000037
   0.50039592  0.00327861  0.50000215
   0.50056435  0.51120792  0.99999925
   0.49887727  0.49815808  0.49999817
   0.76128005  0.49938874  0.50000025
   0.49892657  0.24778965  0.50000238
   0.50066631  0.75071000  0.99999838
   0.49894294  0.75225478  0.49999915
   0.50053961  0.99794829  0.24989717
   0.50053800  0.99793940  0.75010171
   0.49920799  0.50188899  0.24805536
   0.49920927  0.50187661  0.75194776
   0.24282790  0.00302950  0.00000053
   0.23645938  0.00030192  0.49999955
   0.24345588  0.49704388  0.99999983
   0.23549274  0.49939859  0.49999856
   0.75764810  0.00304670  0.99999832
   0.76512229  0.00035335  0.50000094
   0.75905011  0.49731558  0.00000251
   0.99964319  0.25092746  0.99999796
   0.00249787  0.24417203  0.50000015
   0.99961735  0.74927830  0.00000056
   0.00239506  0.75574231  0.49999927
   0.50077115  0.24910176  0.00000184
   0.00016490  0.99979333  0.25708794
   0.00016663  0.99980771  0.74291122
   0.00699925  0.50043288  0.25258032
   0.00700154  0.50043999  0.74741952
 
 position of ions in cartesian coordinates  (Angst):
   0.00170974  0.00239252  7.68725576
   0.00811917  7.78285673  3.84343983
   0.01177147  3.89036029  7.68716441
   7.72313771  3.89101751  3.84353059
   3.94869494  7.68433371 -0.00018400
   3.94945972  0.02544832  3.84364328
   3.95081232  3.97869195  7.68715565
   3.93749738  3.87721461  3.84352019
   6.00855644  3.88680513  3.84353469
   3.93787439  1.92853668  3.84359934
   3.95162867  5.84279440  7.68710422
   3.93802798  5.85491046  3.84348020
   3.95064243  7.76724881  1.92083551
   3.95062850  7.76708678  5.76603750
   3.94010848  3.90629989  1.90676974
   3.94011728  3.90611008  5.78032130
   1.91656109  0.02359047  0.00000237
   1.86629504  0.00226801  3.84362507
   1.92153894  3.86843805  7.68716396
   1.85868982  3.88685771  3.84352414
   5.97986552  0.02356236  7.68724236
   6.03885794  0.00269249  3.84363326
   5.99095740  3.87076189 -0.00007716
   7.88986527  1.95288920  7.68719211
   0.01972542  1.90035712  3.84358516
   7.88968783  5.83185954 -0.00014041
   0.01893866  5.88203203  3.84348271
   3.95243436  1.93884201 -0.00003473
   0.00134916  7.78158500  1.97611478
   0.00136162  7.78160675  5.71076429
   0.05526628  3.89494325  1.94155685
   0.05528318  3.89490679  5.74551410
 


--------------------------------------------------------------------------------------------------------


 k-point  1 :   0.1250 0.1250 0.1250  plane waves:   19858
 k-point  2 :   0.3750 0.1250 0.1250  plane waves:   19892
 k-point  3 :  -0.3750 0.1250 0.1250  plane waves:   19893
 k-point  4 :  -0.1250 0.1250 0.1250  plane waves:   19858
 k-point  5 :   0.1250 0.3750 0.1250  plane waves:   19869
 k-point  6 :   0.3750 0.3750 0.1250  plane waves:   19865
 k-point  7 :  -0.3750 0.3750 0.1250  plane waves:   19865
 k-point  8 :  -0.1250 0.3750 0.1250  plane waves:   19869
 k-point  9 :   0.1250-0.3750 0.1250  plane waves:   19870
 k-point 10 :   0.3750-0.3750 0.1250  plane waves:   19865
 k-point 11 :  -0.3750-0.3750 0.1250  plane waves:   19866
 k-point 12 :  -0.1250-0.3750 0.1250  plane waves:   19870
 k-point 13 :   0.1250-0.1250 0.1250  plane waves:   19859
 k-point 14 :   0.3750-0.1250 0.1250  plane waves:   19890
 k-point 15 :  -0.3750-0.1250 0.1250  plane waves:   19890
 k-point 16 :  -0.1250-0.1250 0.1250  plane waves:   19859
 k-point 17 :   0.1250 0.1250 0.3750  plane waves:   19840
 k-point 18 :   0.3750 0.1250 0.3750  plane waves:   19853
 k-point 19 :  -0.3750 0.1250 0.3750  plane waves:   19853
 k-point 20 :  -0.1250 0.1250 0.3750  plane waves:   19840
 k-point 21 :   0.1250 0.3750 0.3750  plane waves:   19856
 k-point 22 :   0.3750 0.3750 0.3750  plane waves:   19864
 k-point 23 :  -0.3750 0.3750 0.3750  plane waves:   19863
 k-point 24 :  -0.1250 0.3750 0.3750  plane waves:   19856
 k-point 25 :   0.1250-0.3750 0.3750  plane waves:   19857
 k-point 26 :   0.3750-0.3750 0.3750  plane waves:   19863
 k-point 27 :  -0.3750-0.3750 0.3750  plane waves:   19863
 k-point 28 :  -0.1250-0.3750 0.3750  plane waves:   19857
 k-point 29 :   0.1250-0.1250 0.3750  plane waves:   19840
 k-point 30 :   0.3750-0.1250 0.3750  plane waves:   19852
 k-point 31 :  -0.3750-0.1250 0.3750  plane waves:   19852
 k-point 32 :  -0.1250-0.1250 0.3750  plane waves:   19840

 maximum and minimum number of plane-waves per node :      2514     2446

 maximum number of plane-waves:     19893
 maximum index in each direction: 
   IXMAX=   17   IYMAX=   17   IZMAX=   16
   IXMIN=  -17   IYMIN=  -17   IZMIN=  -16


 real space projection operators:
  total allocation   :      18130.19 KBytes
  max/ min on nodes  :       2413.20       1879.56


 parallel 3D FFT for wavefunctions:
    minimum data exchange during FFTs selected (reduces bandwidth)
 parallel 3D FFT for charge:
    minimum data exchange during FFTs selected (reduces bandwidth)


 total amount of memory used by VASP MPI-rank0   108155. kBytes
=======================================================================

   base      :      30000. kBytes
   nonlr-proj:       8396. kBytes
   fftplans  :       8424. kBytes
   grid      :       8783. kBytes
   one-center:        124. kBytes
   wavefun   :      52428. kBytes
 
     INWAV:  cpu time   30.6593: real time   39.3871
 Broyden mixing: mesh for mixing (old mesh)
   NGX = 35   NGY = 33   NGZ = 33
  (NGX  =140   NGY  =140   NGZ  =140)
  gives a total of  38115 points

 charge density for first step will be calculated from the start-wavefunctions


--------------------------------------------------------------------------------------------------------


 Maximum index for non-local projection operator         1352
 Maximum index for augmentation-charges         7732 (set IRDMAX)


--------------------------------------------------------------------------------------------------------


 initial charge from wavefunction
 First call to EWALD:  gamma=   0.228
 Maximum number of real-space cells 3x 3x 3
 Maximum number of reciprocal cells 3x 3x 3

    FEWALD:  cpu time    0.0040: real time    0.0036


--------------------------------------- Iteration      1(   1)  ---------------------------------------


    POTLOK:  cpu time    0.1420: real time    0.2166
    SETDIJ:  cpu time    0.8259: real time    0.8315
     EDDAV:  cpu time   35.7876: real time   35.9818
       DOS:  cpu time    0.0050: real time    0.0055
    CHARGE:  cpu time    1.1568: real time    1.1661
    MIXING:  cpu time    0.0020: real time    0.0019
    --------------------------------------------
      LOOP:  cpu time   37.9192: real time   38.2033

 eigenvalue-minimisations  : 28288
 total energy-change (2. order) :-0.2073516E+03  (-0.7649751E-05)
 number of electron     240.0000004 magnetization       2.0000000
 augmentation part       62.0988566 magnetization       1.0604319

 Broyden mixing:
  rms(total) = 0.75088E-01    rms(broyden)= 0.75081E-01
  rms(prec ) = 0.11174E+00
  weight for this iteration     100.00

 Free energy of the ion-electron system (eV)
  ---------------------------------------------------
  alpha Z        PSCENC =       741.51175202
  Ewald energy   TEWEN  =    -12613.05580890
  -Hartree energ DENC   =     -8383.30968133
  -exchange      EXHF   =         0.00000000
  -V(xc)+E(xc)   XCENC  =      1118.92968947
  PAW double counting   =     17968.90283318   -18088.54872787
  entropy T*S    EENTRO =        -0.00097473
  eigenvalues    EBANDS =     -3254.13391714
  atomic energy  EATOM  =     22302.35321627
  Solvation  Ediel_sol  =         0.00000000
  ---------------------------------------------------
  free energy    TOTEN  =      -207.35161903 eV

  energy without entropy =     -207.35064430  energy(sigma->0) =     -207.35113167


--------------------------------------------------------------------------------------------------------




--------------------------------------- Iteration      1(   2)  ---------------------------------------


    POTLOK:  cpu time    0.1490: real time    0.1608
    SETDIJ:  cpu time    0.8379: real time    0.8358
     EDDAV:  cpu time   35.0677: real time   35.0562
       DOS:  cpu time    0.0060: real time    0.0058
    CHARGE:  cpu time    1.1758: real time    1.1726
    MIXING:  cpu time    0.0100: real time    0.0100
    --------------------------------------------
      LOOP:  cpu time   37.2463: real time   37.2411

 eigenvalue-minimisations  : 27320
 total energy-change (2. order) : 0.4651525E-02  (-0.3133450E-02)
 number of electron     240.0000004 magnetization       2.0000000
 augmentation part       62.0232310 magnetization       1.0066461

 Broyden mixing:
  rms(total) = 0.13482E+00    rms(broyden)= 0.13481E+00
  rms(prec ) = 0.18260E+00
  weight for this iteration     100.00

 eigenvalues of (default mixing * dielectric matrix)
  average eigenvalue GAMMA=   0.3410
  0.3410

 Free energy of the ion-electron system (eV)
  ---------------------------------------------------
  alpha Z        PSCENC =       741.51175202
  Ewald energy   TEWEN  =    -12613.05580890
  -Hartree energ DENC   =     -8384.43418465
  -exchange      EXHF   =         0.00000000
  -V(xc)+E(xc)   XCENC  =      1118.96259812
  PAW double counting   =     17971.29163690   -18090.65957047
  entropy T*S    EENTRO =        -0.00118710
  eigenvalues    EBANDS =     -3253.31541969
  atomic energy  EATOM  =     22302.35321627
  Solvation  Ediel_sol  =         0.00000000
  ---------------------------------------------------
  free energy    TOTEN  =      -207.34696751 eV

  energy without entropy =     -207.34578041  energy(sigma->0) =     -207.34637396


--------------------------------------------------------------------------------------------------------




--------------------------------------- Iteration      1(   3)  ---------------------------------------


    POTLOK:  cpu time    0.1510: real time    0.1630
    SETDIJ:  cpu time    0.8359: real time    0.8341
     EDDAV:  cpu time   35.5256: real time   35.5118
       DOS:  cpu time    0.0050: real time    0.0052
    CHARGE:  cpu time    1.1988: real time    1.1976
    MIXING:  cpu time    0.0020: real time    0.0020
    --------------------------------------------
      LOOP:  cpu time   37.7183: real time   37.7138

 eigenvalue-minimisations  : 27712
 total energy-change (2. order) :-0.7576607E-02  (-0.1990151E-02)
 number of electron     240.0000004 magnetization       2.0000000
 augmentation part       62.0140247 magnetization       0.9813478

 Broyden mixing:
  rms(total) = 0.13416E+00    rms(broyden)= 0.13415E+00
  rms(prec ) = 0.19511E+00
  weight for this iteration     100.00

 eigenvalues of (default mixing * dielectric matrix)
  average eigenvalue GAMMA=   0.3194
  0.3194  0.3194

 Free energy of the ion-electron system (eV)
  ---------------------------------------------------
  alpha Z        PSCENC =       741.51175202
  Ewald energy   TEWEN  =    -12613.05580890
  -Hartree energ DENC   =     -8384.07001947
  -exchange      EXHF   =         0.00000000
  -V(xc)+E(xc)   XCENC  =      1118.96231077
  PAW double counting   =     17970.33997047   -18089.93520333
  entropy T*S    EENTRO =        -0.00007463
  eigenvalues    EBANDS =     -3253.46068732
  atomic energy  EATOM  =     22302.35321627
  Solvation  Ediel_sol  =         0.00000000
  ---------------------------------------------------
  free energy    TOTEN  =      -207.35454412 eV

  energy without entropy =     -207.35446948  energy(sigma->0) =     -207.35450680


--------------------------------------------------------------------------------------------------------




--------------------------------------- Iteration      1(   4)  ---------------------------------------


    POTLOK:  cpu time    0.2480: real time    0.2692
    SETDIJ:  cpu time    0.8289: real time    0.8340
     EDDAV:  cpu time   33.7739: real time   33.9397
       DOS:  cpu time    0.0050: real time    0.0052
    CHARGE:  cpu time    1.1688: real time    1.1787
    MIXING:  cpu time    0.0020: real time    0.0022
    --------------------------------------------
      LOOP:  cpu time   36.0265: real time   36.2288

 eigenvalue-minimisations  : 26048
 total energy-change (2. order) : 0.2695942E-02  (-0.2626992E-03)
 number of electron     240.0000004 magnetization       2.0000000
 augmentation part       62.0264487 magnetization       0.9917857

 Broyden mixing:
  rms(total) = 0.95230E-01    rms(broyden)= 0.95230E-01
  rms(prec ) = 0.14035E+00
  weight for this iteration     100.00

 eigenvalues of (default mixing * dielectric matrix)
  average eigenvalue GAMMA=   0.3547
  0.3803  0.3803  0.3033

 Free energy of the ion-electron system (eV)
  ---------------------------------------------------
  alpha Z        PSCENC =       741.51175202
  Ewald energy   TEWEN  =    -12613.05580890
  -Hartree energ DENC   =     -8383.70116749
  -exchange      EXHF   =         0.00000000
  -V(xc)+E(xc)   XCENC  =      1118.94387755
  PAW double counting   =     17969.67224866   -18089.28970590
  entropy T*S    EENTRO =        -0.00074267
  eigenvalues    EBANDS =     -3253.78551771
  atomic energy  EATOM  =     22302.35321627
  Solvation  Ediel_sol  =         0.00000000
  ---------------------------------------------------
  free energy    TOTEN  =      -207.35184817 eV

  energy without entropy =     -207.35110550  energy(sigma->0) =     -207.35147684


--------------------------------------------------------------------------------------------------------




--------------------------------------- Iteration      1(   5)  ---------------------------------------


    POTLOK:  cpu time    0.1590: real time    0.1789
    SETDIJ:  cpu time    0.7989: real time    0.8378
     EDDAV:  cpu time   35.2936: real time   35.4234
       DOS:  cpu time    0.0060: real time    0.0056
    CHARGE:  cpu time    1.1908: real time    1.1999
    MIXING:  cpu time    0.0020: real time    0.0022
    --------------------------------------------
      LOOP:  cpu time   37.4503: real time   37.6478

 eigenvalue-minimisations  : 27816
 total energy-change (2. order) : 0.1008134E-02  (-0.7005517E-04)
 number of electron     240.0000004 magnetization       2.0000000
 augmentation part       62.0601242 magnetization       1.0234596

 Broyden mixing:
  rms(total) = 0.15343E-01    rms(broyden)= 0.15312E-01
  rms(prec ) = 0.22283E-01
  weight for this iteration     100.00

 eigenvalues of (default mixing * dielectric matrix)
  average eigenvalue GAMMA=   0.3981
  0.4038  0.4038  0.3924  0.3924

 Free energy of the ion-electron system (eV)
  ---------------------------------------------------
  alpha Z        PSCENC =       741.51175202
  Ewald energy   TEWEN  =    -12613.05580890
  -Hartree energ DENC   =     -8383.46538469
  -exchange      EXHF   =         0.00000000
  -V(xc)+E(xc)   XCENC  =      1118.93377109
  PAW double counting   =     17969.21262182   -18088.84409611
  entropy T*S    EENTRO =        -0.00142314
  eigenvalues    EBANDS =     -3253.99548839
  atomic energy  EATOM  =     22302.35321627
  Solvation  Ediel_sol  =         0.00000000
  ---------------------------------------------------
  free energy    TOTEN  =      -207.35084004 eV

  energy without entropy =     -207.34941690  energy(sigma->0) =     -207.35012847


--------------------------------------------------------------------------------------------------------




--------------------------------------- Iteration      1(   6)  ---------------------------------------


    POTLOK:  cpu time    0.2530: real time    0.2648
    SETDIJ:  cpu time    0.8359: real time    0.8346
     EDDAV:  cpu time   29.1726: real time   29.1616
       DOS:  cpu time    0.0050: real time    0.0055
    CHARGE:  cpu time    1.1688: real time    1.1670
    MIXING:  cpu time    0.0030: real time    0.0023
    --------------------------------------------
      LOOP:  cpu time   31.4382: real time   31.4357

 eigenvalue-minimisations  : 21472
 total energy-change (2. order) :-0.8760906E-04  (-0.1275263E-04)
 number of electron     240.0000004 magnetization       2.0000000
 augmentation part       62.0641713 magnetization       1.0273890

 Broyden mixing:
  rms(total) = 0.53255E-02    rms(broyden)= 0.53162E-02
  rms(prec ) = 0.75636E-02
  weight for this iteration     100.00

 eigenvalues of (default mixing * dielectric matrix)
  average eigenvalue GAMMA=   0.4339
  0.4214  0.4214  0.4959  0.4959  0.3351

 Free energy of the ion-electron system (eV)
  ---------------------------------------------------
  alpha Z        PSCENC =       741.51175202
  Ewald energy   TEWEN  =    -12613.05580890
  -Hartree energ DENC   =     -8383.44567884
  -exchange      EXHF   =         0.00000000
  -V(xc)+E(xc)   XCENC  =      1118.93300459
  PAW double counting   =     17969.15112761   -18088.78573629
  entropy T*S    EENTRO =        -0.00143182
  eigenvalues    EBANDS =     -3254.01137229
  atomic energy  EATOM  =     22302.35321627
  Solvation  Ediel_sol  =         0.00000000
  ---------------------------------------------------
  free energy    TOTEN  =      -207.35092765 eV

  energy without entropy =     -207.34949583  energy(sigma->0) =     -207.35021174


--------------------------------------------------------------------------------------------------------




--------------------------------------- Iteration      1(   7)  ---------------------------------------


    POTLOK:  cpu time    0.1560: real time    0.1720
    SETDIJ:  cpu time    0.8369: real time    0.8361
     EDDAV:  cpu time   29.6395: real time   29.6723
       DOS:  cpu time    0.0060: real time    0.0054
    CHARGE:  cpu time    1.1718: real time    1.1698
    MIXING:  cpu time    0.0030: real time    0.0023
    --------------------------------------------
      LOOP:  cpu time   31.8132: real time   31.8580

 eigenvalue-minimisations  : 21880
 total energy-change (2. order) :-0.1250705E-04  (-0.5861880E-06)
 number of electron     240.0000004 magnetization       2.0000000
 augmentation part       62.0643544 magnetization       1.0273561

 Broyden mixing:
  rms(total) = 0.48362E-02    rms(broyden)= 0.48358E-02
  rms(prec ) = 0.69851E-02
  weight for this iteration     100.00

 eigenvalues of (default mixing * dielectric matrix)
  average eigenvalue GAMMA=   0.5372
  0.8094  0.8094  0.4087  0.4087  0.3935  0.3935

 Free energy of the ion-electron system (eV)
  ---------------------------------------------------
  alpha Z        PSCENC =       741.51175202
  Ewald energy   TEWEN  =    -12613.05580890
  -Hartree energ DENC   =     -8383.42920956
  -exchange      EXHF   =         0.00000000
  -V(xc)+E(xc)   XCENC  =      1118.93228309
  PAW double counting   =     17969.10264792   -18088.73995857
  entropy T*S    EENTRO =        -0.00142986
  eigenvalues    EBANDS =     -3254.02443257
  atomic energy  EATOM  =     22302.35321627
  Solvation  Ediel_sol  =         0.00000000
  ---------------------------------------------------
  free energy    TOTEN  =      -207.35094016 eV

  energy without entropy =     -207.34951030  energy(sigma->0) =     -207.35022523


--------------------------------------------------------------------------------------------------------




--------------------------------------- Iteration      1(   8)  ---------------------------------------


    POTLOK:  cpu time    0.1520: real time    0.1647
    SETDIJ:  cpu time    0.8289: real time    0.8343
     EDDAV:  cpu time   24.4993: real time   24.5860
       DOS:  cpu time    0.0050: real time    0.0054
    --------------------------------------------
      LOOP:  cpu time   25.4851: real time   25.5903

 eigenvalue-minimisations  : 16720
 total energy-change (2. order) :-0.9672221E-06  (-0.2222237E-06)
 number of electron     240.0000004 magnetization       2.0000000
 augmentation part       62.0643544 magnetization       1.0273561

 Free energy of the ion-electron system (eV)
  ---------------------------------------------------
  alpha Z        PSCENC =       741.51175202
  Ewald energy   TEWEN  =    -12613.05580890
  -Hartree energ DENC   =     -8383.41790096
  -exchange      EXHF   =         0.00000000
  -V(xc)+E(xc)   XCENC  =      1118.93157307
  PAW double counting   =     17969.06813868   -18088.70659162
  entropy T*S    EENTRO =        -0.00142947
  eigenvalues    EBANDS =     -3254.03389022
  atomic energy  EATOM  =     22302.35321627
  Solvation  Ediel_sol  =         0.00000000
  ---------------------------------------------------
  free energy    TOTEN  =      -207.35094112 eV

  energy without entropy =     -207.34951165  energy(sigma->0) =     -207.35022639


--------------------------------------------------------------------------------------------------------




 average (electrostatic) potential at core
  the test charge radii are     1.0397  0.7215  0.7167
  (the norm of the test charge is              1.0000)
       1 -58.3579       2 -60.8518       3 -58.6190       4 -58.9811       5 -58.2314
       6 -57.8704       7 -58.1166       8 -57.7484       9 -74.2023      10 -73.2524
      11 -73.8330      12 -73.4827      13 -73.2478      14 -73.2478      15 -73.0817
      16 -73.0817      17 -79.5567      18 -80.0646      19 -79.4042      20 -78.1613
      21 -79.5521      22 -80.0521      23 -79.4175      24 -79.8228      25 -80.4618
      26 -79.8447      27 -80.4644      28 -78.1230      29 -80.7086      30 -80.7086
      31 -79.9854      32 -79.9854
 
 
 
 E-fermi :   0.3633     XC(G=0):  -8.8748     alpha+bet : -7.4827


 spin component 1

 k-point     1 :       0.1250    0.1250    0.1250
  band No.  band energies     occupation 
      1     -36.8651      1.00000
      2     -36.7944      1.00000
      3     -36.7599      1.00000
      4     -35.2441      1.00000
      5     -35.1654      1.00000
      6     -35.1512      1.00000
      7     -35.1138      1.00000
      8     -34.9161      1.00000
      9     -34.8892      1.00000
     10     -34.7733      1.00000
     11     -34.7510      1.00000
     12     -34.6671      1.00000
     13     -34.3079      1.00000
     14     -34.1820      1.00000
     15     -34.1180      1.00000
     16     -34.0028      1.00000
     17     -33.9795      1.00000
     18     -33.8867      1.00000
     19     -33.7514      1.00000
     20     -33.6857      1.00000
     21     -33.6147      1.00000
     22     -33.6057      1.00000
     23     -33.4888      1.00000
     24     -33.4623      1.00000
     25     -24.6758      1.00000
     26     -24.3212      1.00000
     27     -24.0433      1.00000
     28     -23.9376      1.00000
     29     -23.8570      1.00000
     30     -23.8413      1.00000
     31     -23.6949      1.00000
     32     -23.3790      1.00000
     33     -23.3758      1.00000
     34     -23.3596      1.00000
     35     -23.2425      1.00000
     36     -23.2123      1.00000
     37     -22.9548      1.00000
     38     -22.8099      1.00000
     39     -21.8172      1.00000
     40     -21.7646      1.00000
     41     -16.5064      1.00000
     42     -16.3203      1.00000
     43     -16.1624      1.00000
     44     -15.9225      1.00000
     45     -15.7260      1.00000
     46     -15.3288      1.00000
     47     -15.2871      1.00000
     48     -15.1429      1.00000
     49      -8.2759      1.00000
     50      -7.9926      1.00000
     51      -7.4829      1.00000
     52      -7.4551      1.00000
     53      -7.1884      1.00000
     54      -6.9749      1.00000
     55      -6.8908      1.00000
     56      -6.7778      1.00000
     57      -6.6346      1.00000
     58      -6.5973      1.00000
     59      -6.5712      1.00000
     60      -6.2986      1.00000
     61      -6.1514      1.00000
     62      -6.0383      1.00000
     63      -5.9354      1.00000
     64      -5.8635      1.00000
     65      -5.7627      1.00000
     66      -5.7353      1.00000
     67      -5.6951      1.00000
     68      -5.6683      1.00000
     69      -5.5760      1.00000
     70      -5.3709      1.00000
     71      -5.2683      1.00000
     72      -5.2493      1.00000
     73      -5.2233      1.00000
     74      -5.1735      1.00000
     75      -5.0423      1.00000
     76      -4.8202      1.00000
     77      -4.8027      1.00000
     78      -4.7919      1.00000
     79      -4.7784      1.00000
     80      -4.7184      1.00000
     81      -4.6846      1.00000
     82      -4.6046      1.00000
     83      -4.5427      1.00000
     84      -4.4696      1.00000
     85      -4.3917      1.00000
     86      -4.3799      1.00000
     87      -4.2961      1.00000
     88      -4.2523      1.00000
     89      -4.1683      1.00000
     90      -4.1265      1.00000
     91      -4.0988      1.00000
     92      -4.0030      1.00000
     93      -3.9570      1.00000
     94      -3.8416      1.00000
     95      -3.7577      1.00000
     96      -3.6585      1.00000
     97      -3.2208      1.00000
     98      -3.0807      1.00000
     99      -3.0407      1.00000
    100      -2.9014      1.00000
    101      -2.8448      1.00000
    102      -2.6008      1.00000
    103      -2.3741      1.00000
    104      -2.3001      1.00000
    105      -1.9685      1.00000
    106      -1.7217      1.00000
    107      -1.6716      1.00000
    108      -1.5158      1.00000
    109      -1.3321      1.00000
    110      -1.2529      1.00000
    111      -1.0942      1.00000
    112      -1.0501      1.00000
    113      -0.9470      1.00000
    114      -0.8780      1.00000
    115      -0.7437      1.00000
    116      -0.6473      1.00000
    117      -0.5756      1.00000
    118      -0.4345      1.00000
    119      -0.3254      1.00000
    120      -0.1356      1.00000
    121       0.3629      0.52258
    122       0.6395      0.00000
    123       1.0651      0.00000
    124       1.1452      0.00000
    125       1.1854      0.00000
    126       2.1215      0.00000
    127       2.2641      0.00000
    128       2.2952      0.00000
    129       2.4954      0.00000
    130       2.5653      0.00000
    131       2.5773      0.00000
    132       2.7651      0.00000
    133       2.9197      0.00000
    134       2.9519      0.00000
    135       3.0431      0.00000
    136       3.0585      0.00000
    137       3.0785      0.00000
    138       3.2305      0.00000
    139       3.3822      0.00000
    140       3.4959      0.00000
    141       3.5359      0.00000
    142       3.9338      0.00000
    143       4.0321      0.00000
    144       4.1260      0.00000
    145       4.1734      0.00000
    146       4.2272      0.00000
    147       4.4410      0.00000
    148       4.4452      0.00000
    149       4.5297      0.00000
    150       4.5749      0.00000
    151       4.6204      0.00000
    152       4.7010      0.00000
    153       5.0929      0.00000
    154       5.1495      0.00000
    155       5.2842      0.00000
    156       5.7150      0.00000
    157       5.8686      0.00000
    158       6.1856      0.00000
    159       6.4137      0.00000
    160       6.7973      0.00000

 k-point     2 :       0.3750    0.1250    0.1250
  band No.  band energies     occupation 
      1     -36.8651      1.00000
      2     -36.7944      1.00000
      3     -36.7595      1.00000
      4     -35.2427      1.00000
      5     -35.1636      1.00000
      6     -35.1512      1.00000
      7     -35.1138      1.00000
      8     -34.9161      1.00000
      9     -34.8892      1.00000
     10     -34.7728      1.00000
     11     -34.7510      1.00000
     12     -34.6671      1.00000
     13     -34.3105      1.00000
     14     -34.1841      1.00000
     15     -34.1180      1.00000
     16     -34.0028      1.00000
     17     -33.9806      1.00000
     18     -33.8867      1.00000
     19     -33.7514      1.00000
     20     -33.6865      1.00000
     21     -33.6147      1.00000
     22     -33.6057      1.00000
     23     -33.4888      1.00000
     24     -33.4623      1.00000
     25     -24.6737      1.00000
     26     -24.3200      1.00000
     27     -24.0428      1.00000
     28     -23.9326      1.00000
     29     -23.8482      1.00000
     30     -23.7802      1.00000
     31     -23.6906      1.00000
     32     -23.4586      1.00000
     33     -23.3625      1.00000
     34     -23.2830      1.00000
     35     -23.2290      1.00000
     36     -23.1287      1.00000
     37     -23.0579      1.00000
     38     -22.9119      1.00000
     39     -21.8126      1.00000
     40     -21.7634      1.00000
     41     -16.5246      1.00000
     42     -16.3191      1.00000
     43     -16.1607      1.00000
     44     -15.9208      1.00000
     45     -15.7254      1.00000
     46     -15.3289      1.00000
     47     -15.2870      1.00000
     48     -15.1429      1.00000
     49      -8.2746      1.00000
     50      -7.9923      1.00000
     51      -7.4784      1.00000
     52      -7.1863      1.00000
     53      -7.1778      1.00000
     54      -6.9748      1.00000
     55      -6.6384      1.00000
     56      -6.5840      1.00000
     57      -6.5728      1.00000
     58      -6.5466      1.00000
     59      -6.4458      1.00000
     60      -6.3667      1.00000
     61      -6.2640      1.00000
     62      -6.0396      1.00000
     63      -5.9871      1.00000
     64      -5.9361      1.00000
     65      -5.8596      1.00000
     66      -5.7630      1.00000
     67      -5.7519      1.00000
     68      -5.6965      1.00000
     69      -5.6906      1.00000
     70      -5.4191      1.00000
     71      -5.3647      1.00000
     72      -5.2631      1.00000
     73      -5.2333      1.00000
     74      -5.1950      1.00000
     75      -4.9590      1.00000
     76      -4.9297      1.00000
     77      -4.8772      1.00000
     78      -4.8133      1.00000
     79      -4.7927      1.00000
     80      -4.7583      1.00000
     81      -4.6738      1.00000
     82      -4.6277      1.00000
     83      -4.5868      1.00000
     84      -4.4983      1.00000
     85      -4.4363      1.00000
     86      -4.3742      1.00000
     87      -4.3677      1.00000
     88      -4.2201      1.00000
     89      -4.1916      1.00000
     90      -4.1011      1.00000
     91      -4.0774      1.00000
     92      -3.9451      1.00000
     93      -3.8781      1.00000
     94      -3.7926      1.00000
     95      -3.7598      1.00000
     96      -3.6590      1.00000
     97      -3.4004      1.00000
     98      -3.1713      1.00000
     99      -3.0511      1.00000
    100      -2.9442      1.00000
    101      -2.8590      1.00000
    102      -2.6018      1.00000
    103      -2.4058      1.00000
    104      -2.2836      1.00000
    105      -1.9862      1.00000
    106      -1.7307      1.00000
    107      -1.6903      1.00000
    108      -1.5463      1.00000
    109      -1.3077      1.00000
    110      -1.2685      1.00000
    111      -1.0833      1.00000
    112      -1.0597      1.00000
    113      -0.9591      1.00000
    114      -0.8558      1.00000
    115      -0.7437      1.00000
    116      -0.6512      1.00000
    117      -0.6049      1.00000
    118      -0.4361      1.00000
    119      -0.3243      1.00000
    120      -0.1363      1.00000
    121       0.3629      0.52296
    122       0.6394      0.00000
    123       1.0651      0.00000
    124       1.1873      0.00000
    125       1.2260      0.00000
    126       2.2651      0.00000
    127       2.2891      0.00000
    128       2.4425      0.00000
    129       2.4956      0.00000
    130       2.6429      0.00000
    131       2.8197      0.00000
    132       2.8608      0.00000
    133       2.8966      0.00000
    134       2.9203      0.00000
    135       2.9402      0.00000
    136       2.9876      0.00000
    137       3.0280      0.00000
    138       3.3708      0.00000
    139       3.4020      0.00000
    140       3.5471      0.00000
    141       3.6130      0.00000
    142       4.0798      0.00000
    143       4.1489      0.00000
    144       4.2209      0.00000
    145       4.3060      0.00000
    146       4.3948      0.00000
    147       4.4303      0.00000
    148       4.5281      0.00000
    149       4.5498      0.00000
    150       4.5725      0.00000
    151       4.6378      0.00000
    152       4.6624      0.00000
    153       4.9700      0.00000
    154       5.0961      0.00000
    155       5.1741      0.00000
    156       5.5919      0.00000
    157       5.7780      0.00000
    158       6.1592      0.00000
    159       6.3151      0.00000
    160       6.5871      0.00000

 k-point     3 :      -0.3750    0.1250    0.1250
  band No.  band energies     occupation 
      1     -36.8651      1.00000
      2     -36.7944      1.00000
      3     -36.7595      1.00000
      4     -35.2427      1.00000
      5     -35.1636      1.00000
      6     -35.1512      1.00000
      7     -35.1138      1.00000
      8     -34.9161      1.00000
      9     -34.8892      1.00000
     10     -34.7728      1.00000
     11     -34.7510      1.00000
     12     -34.6671      1.00000
     13     -34.3105      1.00000
     14     -34.1841      1.00000
     15     -34.1180      1.00000
     16     -34.0028      1.00000
     17     -33.9806      1.00000
     18     -33.8867      1.00000
     19     -33.7514      1.00000
     20     -33.6865      1.00000
     21     -33.6147      1.00000
     22     -33.6057      1.00000
     23     -33.4888      1.00000
     24     -33.4623      1.00000
     25     -24.6737      1.00000
     26     -24.3200      1.00000
     27     -24.0428      1.00000
     28     -23.9326      1.00000
     29     -23.8482      1.00000
     30     -23.7802      1.00000
     31     -23.6906      1.00000
     32     -23.4586      1.00000
     33     -23.3625      1.00000
     34     -23.2829      1.00000
     35     -23.2290      1.00000
     36     -23.1287      1.00000
     37     -23.0579      1.00000
     38     -22.9119      1.00000
     39     -21.8126      1.00000
     40     -21.7634      1.00000
     41     -16.5246      1.00000
     42     -16.3191      1.00000
     43     -16.1607      1.00000
     44     -15.9208      1.00000
     45     -15.7254      1.00000
     46     -15.3289      1.00000
     47     -15.2870      1.00000
     48     -15.1429      1.00000
     49      -8.2746      1.00000
     50      -7.9923      1.00000
     51      -7.4784      1.00000
     52      -7.1863      1.00000
     53      -7.1779      1.00000
     54      -6.9748      1.00000
     55      -6.6384      1.00000
     56      -6.5840      1.00000
     57      -6.5729      1.00000
     58      -6.5464      1.00000
     59      -6.4458      1.00000
     60      -6.3668      1.00000
     61      -6.2641      1.00000
     62      -6.0398      1.00000
     63      -5.9869      1.00000
     64      -5.9362      1.00000
     65      -5.8595      1.00000
     66      -5.7627      1.00000
     67      -5.7516      1.00000
     68      -5.6969      1.00000
     69      -5.6907      1.00000
     70      -5.4191      1.00000
     71      -5.3646      1.00000
     72      -5.2633      1.00000
     73      -5.2333      1.00000
     74      -5.1945      1.00000
     75      -4.9595      1.00000
     76      -4.9300      1.00000
     77      -4.8772      1.00000
     78      -4.8178      1.00000
     79      -4.7862      1.00000
     80      -4.7566      1.00000
     81      -4.6760      1.00000
     82      -4.6265      1.00000
     83      -4.5891      1.00000
     84      -4.4996      1.00000
     85      -4.4362      1.00000
     86      -4.3737      1.00000
     87      -4.3673      1.00000
     88      -4.2202      1.00000
     89      -4.1916      1.00000
     90      -4.1013      1.00000
     91      -4.0775      1.00000
     92      -3.9450      1.00000
     93      -3.8773      1.00000
     94      -3.7926      1.00000
     95      -3.7600      1.00000
     96      -3.6594      1.00000
     97      -3.4010      1.00000
     98      -3.1706      1.00000
     99      -3.0502      1.00000
    100      -2.9438      1.00000
    101      -2.8594      1.00000
    102      -2.6036      1.00000
    103      -2.4050      1.00000
    104      -2.2824      1.00000
    105      -1.9862      1.00000
    106      -1.7309      1.00000
    107      -1.6897      1.00000
    108      -1.5467      1.00000
    109      -1.3081      1.00000
    110      -1.2687      1.00000
    111      -1.0895      1.00000
    112      -1.0593      1.00000
    113      -0.9548      1.00000
    114      -0.8555      1.00000
    115      -0.7437      1.00000
    116      -0.6510      1.00000
    117      -0.6046      1.00000
    118      -0.4360      1.00000
    119      -0.3237      1.00000
    120      -0.1363      1.00000
    121       0.3629      0.52272
    122       0.6394      0.00000
    123       1.0651      0.00000
    124       1.1873      0.00000
    125       1.2255      0.00000
    126       2.2647      0.00000
    127       2.2893      0.00000
    128       2.4425      0.00000
    129       2.4956      0.00000
    130       2.6429      0.00000
    131       2.8224      0.00000
    132       2.8631      0.00000
    133       2.8922      0.00000
    134       2.9203      0.00000
    135       2.9405      0.00000
    136       2.9863      0.00000
    137       3.0284      0.00000
    138       3.3701      0.00000
    139       3.4027      0.00000
    140       3.5470      0.00000
    141       3.6136      0.00000
    142       4.0796      0.00000
    143       4.1480      0.00000
    144       4.2211      0.00000
    145       4.3058      0.00000
    146       4.3985      0.00000
    147       4.4315      0.00000
    148       4.5302      0.00000
    149       4.5502      0.00000
    150       4.5728      0.00000
    151       4.6326      0.00000
    152       4.6618      0.00000
    153       4.9659      0.00000
    154       5.0970      0.00000
    155       5.1733      0.00000
    156       5.5963      0.00000
    157       5.7776      0.00000
    158       6.1596      0.00000
    159       6.3138      0.00000
    160       6.5870      0.00000

 k-point     4 :      -0.1250    0.1250    0.1250
  band No.  band energies     occupation 
      1     -36.8651      1.00000
      2     -36.7944      1.00000
      3     -36.7599      1.00000
      4     -35.2441      1.00000
      5     -35.1654      1.00000
      6     -35.1512      1.00000
      7     -35.1138      1.00000
      8     -34.9161      1.00000
      9     -34.8892      1.00000
     10     -34.7733      1.00000
     11     -34.7510      1.00000
     12     -34.6671      1.00000
     13     -34.3079      1.00000
     14     -34.1820      1.00000
     15     -34.1180      1.00000
     16     -34.0028      1.00000
     17     -33.9795      1.00000
     18     -33.8867      1.00000
     19     -33.7514      1.00000
     20     -33.6857      1.00000
     21     -33.6147      1.00000
     22     -33.6057      1.00000
     23     -33.4888      1.00000
     24     -33.4623      1.00000
     25     -24.6758      1.00000
     26     -24.3212      1.00000
     27     -24.0433      1.00000
     28     -23.9376      1.00000
     29     -23.8570      1.00000
     30     -23.8413      1.00000
     31     -23.6949      1.00000
     32     -23.3790      1.00000
     33     -23.3758      1.00000
     34     -23.3596      1.00000
     35     -23.2425      1.00000
     36     -23.2123      1.00000
     37     -22.9548      1.00000
     38     -22.8099      1.00000
     39     -21.8172      1.00000
     40     -21.7646      1.00000
     41     -16.5064      1.00000
     42     -16.3203      1.00000
     43     -16.1624      1.00000
     44     -15.9225      1.00000
     45     -15.7260      1.00000
     46     -15.3288      1.00000
     47     -15.2871      1.00000
     48     -15.1429      1.00000
     49      -8.2759      1.00000
     50      -7.9926      1.00000
     51      -7.4829      1.00000
     52      -7.4551      1.00000
     53      -7.1884      1.00000
     54      -6.9749      1.00000
     55      -6.8908      1.00000
     56      -6.7778      1.00000
     57      -6.6346      1.00000
     58      -6.5973      1.00000
     59      -6.5712      1.00000
     60      -6.2986      1.00000
     61      -6.1514      1.00000
     62      -6.0384      1.00000
     63      -5.9354      1.00000
     64      -5.8634      1.00000
     65      -5.7625      1.00000
     66      -5.7354      1.00000
     67      -5.6953      1.00000
     68      -5.6681      1.00000
     69      -5.5761      1.00000
     70      -5.3705      1.00000
     71      -5.2683      1.00000
     72      -5.2501      1.00000
     73      -5.2226      1.00000
     74      -5.1733      1.00000
     75      -5.0423      1.00000
     76      -4.8211      1.00000
     77      -4.8035      1.00000
     78      -4.7911      1.00000
     79      -4.7784      1.00000
     80      -4.7146      1.00000
     81      -4.6884      1.00000
     82      -4.6030      1.00000
     83      -4.5425      1.00000
     84      -4.4733      1.00000
     85      -4.3918      1.00000
     86      -4.3772      1.00000
     87      -4.2959      1.00000
     88      -4.2525      1.00000
     89      -4.1691      1.00000
     90      -4.1268      1.00000
     91      -4.0987      1.00000
     92      -4.0026      1.00000
     93      -3.9569      1.00000
     94      -3.8414      1.00000
     95      -3.7579      1.00000
     96      -3.6587      1.00000
     97      -3.2213      1.00000
     98      -3.0798      1.00000
     99      -3.0399      1.00000
    100      -2.9009      1.00000
    101      -2.8453      1.00000
    102      -2.6026      1.00000
    103      -2.3735      1.00000
    104      -2.2988      1.00000
    105      -1.9685      1.00000
    106      -1.7218      1.00000
    107      -1.6709      1.00000
    108      -1.5161      1.00000
    109      -1.3324      1.00000
    110      -1.2532      1.00000
    111      -1.1001      1.00000
    112      -1.0498      1.00000
    113      -0.9433      1.00000
    114      -0.8774      1.00000
    115      -0.7438      1.00000
    116      -0.6472      1.00000
    117      -0.5753      1.00000
    118      -0.4344      1.00000
    119      -0.3248      1.00000
    120      -0.1356      1.00000
    121       0.3629      0.52233
    122       0.6395      0.00000
    123       1.0651      0.00000
    124       1.1452      0.00000
    125       1.1849      0.00000
    126       2.1214      0.00000
    127       2.2639      0.00000
    128       2.2952      0.00000
    129       2.4955      0.00000
    130       2.5655      0.00000
    131       2.5773      0.00000
    132       2.7651      0.00000
    133       2.9196      0.00000
    134       2.9524      0.00000
    135       3.0431      0.00000
    136       3.0579      0.00000
    137       3.0787      0.00000
    138       3.2301      0.00000
    139       3.3824      0.00000
    140       3.4965      0.00000
    141       3.5355      0.00000
    142       3.9323      0.00000
    143       4.0324      0.00000
    144       4.1261      0.00000
    145       4.1773      0.00000
    146       4.2274      0.00000
    147       4.4389      0.00000
    148       4.4450      0.00000
    149       4.5298      0.00000
    150       4.5730      0.00000
    151       4.6212      0.00000
    152       4.7010      0.00000
    153       5.0927      0.00000
    154       5.1474      0.00000
    155       5.2865      0.00000
    156       5.7150      0.00000
    157       5.8686      0.00000
    158       6.1870      0.00000
    159       6.4123      0.00000
    160       6.7979      0.00000

 k-point     5 :       0.1250    0.3750    0.1250
  band No.  band energies     occupation 
      1     -36.8651      1.00000
      2     -36.7934      1.00000
      3     -36.7599      1.00000
      4     -35.2441      1.00000
      5     -35.1654      1.00000
      6     -35.1512      1.00000
      7     -35.1156      1.00000
      8     -34.9040      1.00000
      9     -34.8892      1.00000
     10     -34.7733      1.00000
     11     -34.7510      1.00000
     12     -34.6802      1.00000
     13     -34.3079      1.00000
     14     -34.1820      1.00000
     15     -34.1079      1.00000
     16     -34.0134      1.00000
     17     -33.9795      1.00000
     18     -33.8867      1.00000
     19     -33.7514      1.00000
     20     -33.6857      1.00000
     21     -33.6147      1.00000
     22     -33.6005      1.00000
     23     -33.4942      1.00000
     24     -33.4623      1.00000
     25     -24.6645      1.00000
     26     -24.2151      1.00000
     27     -24.0442      1.00000
     28     -24.0178      1.00000
     29     -23.8726      1.00000
     30     -23.8465      1.00000
     31     -23.5893      1.00000
     32     -23.4273      1.00000
     33     -23.3787      1.00000
     34     -23.3590      1.00000
     35     -23.3243      1.00000
     36     -23.2128      1.00000
     37     -22.9547      1.00000
     38     -22.8099      1.00000
     39     -21.8168      1.00000
     40     -21.7587      1.00000
     41     -16.4876      1.00000
     42     -16.3241      1.00000
     43     -16.1156      1.00000
     44     -15.9362      1.00000
     45     -15.7285      1.00000
     46     -15.3848      1.00000
     47     -15.3152      1.00000
     48     -15.1427      1.00000
     49      -8.2701      1.00000
     50      -7.6452      1.00000
     51      -7.4649      1.00000
     52      -7.4430      1.00000
     53      -6.9437      1.00000
     54      -6.9138      1.00000
     55      -6.8472      1.00000
     56      -6.8052      1.00000
     57      -6.7593      1.00000
     58      -6.6332      1.00000
     59      -6.5970      1.00000
     60      -6.2852      1.00000
     61      -6.2297      1.00000
     62      -6.1681      1.00000
     63      -6.1598      1.00000
     64      -6.0670      1.00000
     65      -5.7486      1.00000
     66      -5.7319      1.00000
     67      -5.6661      1.00000
     68      -5.5978      1.00000
     69      -5.5058      1.00000
     70      -5.3622      1.00000
     71      -5.2807      1.00000
     72      -5.2562      1.00000
     73      -5.2295      1.00000
     74      -5.1824      1.00000
     75      -5.0388      1.00000
     76      -4.9628      1.00000
     77      -4.8647      1.00000
     78      -4.7904      1.00000
     79      -4.7799      1.00000
     80      -4.7527      1.00000
     81      -4.6913      1.00000
     82      -4.5678      1.00000
     83      -4.4383      1.00000
     84      -4.4073      1.00000
     85      -4.3976      1.00000
     86      -4.3164      1.00000
     87      -4.2481      1.00000
     88      -4.2204      1.00000
     89      -4.1832      1.00000
     90      -4.1232      1.00000
     91      -4.1018      1.00000
     92      -3.9782      1.00000
     93      -3.9541      1.00000
     94      -3.7955      1.00000
     95      -3.4739      1.00000
     96      -3.3481      1.00000
     97      -3.3090      1.00000
     98      -3.1309      1.00000
     99      -3.0839      1.00000
    100      -3.0314      1.00000
    101      -2.9300      1.00000
    102      -2.8517      1.00000
    103      -2.4641      1.00000
    104      -2.3088      1.00000
    105      -2.0675      1.00000
    106      -1.9646      1.00000
    107      -1.8718      1.00000
    108      -1.7425      1.00000
    109      -1.3318      1.00000
    110      -1.1511      1.00000
    111      -1.1167      1.00000
    112      -0.9661      1.00000
    113      -0.9333      1.00000
    114      -0.8735      1.00000
    115      -0.6138      1.00000
    116      -0.5661      1.00000
    117      -0.5258      1.00000
    118      -0.4154      1.00000
    119      -0.3709      1.00000
[...]
 -0.000  -0.000  -0.000  -0.000  -0.000  -0.000  -0.000  -0.000  -0.000   0.011   0.000  -0.000  -0.000  -0.000  -0.003   0.000
 -0.000  -0.000  -0.000  -0.000  -0.000  -0.000  -0.000  -0.000  -0.004   0.000   0.016   0.000  -0.000  -0.000  -0.000  -0.001
 -0.000   0.000   0.000  -0.000   0.000   0.000  -0.003  -0.000  -0.000  -0.000   0.000  -0.007  -0.000   0.000   0.000   0.000
  0.000   0.000  -0.000   0.000   0.000  -0.000  -0.000   0.532   0.000  -0.000  -0.000  -0.000   0.412   0.000  -0.000  -0.000
 -0.000   0.000   0.000  -0.000   0.000   0.000   0.000   0.000  -0.002  -0.000  -0.000   0.000   0.000  -0.016   0.000   0.006
  0.000  -0.000  -0.000   0.000  -0.000  -0.000  -0.000  -0.000  -0.000  -0.003  -0.000   0.000  -0.000   0.000  -0.006  -0.000
 -0.000   0.000   0.000  -0.000  -0.000  -0.000   0.000  -0.000  -0.000   0.000  -0.001   0.000  -0.000   0.006  -0.000  -0.026
  0.000   0.000   0.000   0.000   0.000   0.000  -0.000   0.000   0.004  -0.000  -0.007   0.000   0.000  -0.015   0.000   0.023
  0.000  -0.000   0.000   0.000  -0.000  -0.000  -0.000  -0.000   0.012  -0.000  -0.024   0.000  -0.000  -0.018   0.000   0.035


------------------------ aborting loop because EDIFF is reached ----------------------------------------


 


 total charge     
 
# of ion       s       p       d       tot
------------------------------------------
    1        0.252   6.364   1.833   8.449
    2        0.325   6.515   1.738   8.578
    3        0.269   6.395   1.798   8.462
    4        0.309   6.468   1.876   8.653
    5        0.304   6.446   1.734   8.484
    6        0.299   6.454   1.733   8.486
    7        0.302   6.447   1.732   8.480
    8        0.303   6.441   1.674   8.417
    9        1.576   3.424   0.000   5.000
   10        1.571   3.381   0.000   4.952
   11        1.572   3.433   0.000   5.005
   12        1.574   3.335   0.000   4.909
   13        1.569   3.395   0.000   4.964
   14        1.569   3.396   0.000   4.964
   15        1.569   3.392   0.000   4.961
   16        1.569   3.392   0.000   4.961
   17        1.730   4.387   0.000   6.117
   18        1.733   4.371   0.000   6.104
   19        1.730   4.387   0.000   6.117
   20        1.728   4.367   0.000   6.095
   21        1.730   4.388   0.000   6.117
   22        1.733   4.371   0.000   6.104
   23        1.730   4.385   0.000   6.115
   24        1.729   4.399   0.000   6.129
   25        1.731   4.389   0.000   6.119
   26        1.729   4.398   0.000   6.127
   27        1.731   4.389   0.000   6.119
   28        1.729   4.365   0.000   6.094
   29        1.732   4.399   0.000   6.131
   30        1.732   4.399   0.000   6.131
   31        1.731   4.401   0.000   6.132
   32        1.731   4.401   0.000   6.132
--------------------------------------------------
tot         42.619 148.873  14.117 205.609
 


 magnetization (x)
 
# of ion       s       p       d       tot
------------------------------------------
    1        0.004   0.006   0.835   0.846
    2        0.000   0.000   0.040   0.040
    3        0.003   0.005   0.679   0.688
    4       -0.000   0.000   0.017   0.017
    5       -0.000  -0.000  -0.009  -0.009
    6       -0.001  -0.002  -0.019  -0.021
    7       -0.000  -0.000  -0.009  -0.009
    8       -0.001  -0.002  -0.019  -0.021
    9       -0.000  -0.001   0.000  -0.001
   10       -0.002  -0.142   0.000  -0.144
   11        0.000   0.005   0.000   0.005
   12        0.005   0.334   0.000   0.338
   13        0.001   0.035   0.000   0.036
   14        0.001   0.036   0.000   0.037
   15        0.001   0.039   0.000   0.040
   16        0.001   0.039   0.000   0.039
   17       -0.000  -0.010   0.000  -0.010
   18       -0.000  -0.001   0.000  -0.001
   19       -0.000  -0.009   0.000  -0.009
   20       -0.000  -0.000   0.000  -0.000
   21       -0.000  -0.010   0.000  -0.010
   22       -0.000  -0.001   0.000  -0.001
   23       -0.000  -0.009   0.000  -0.009
   24       -0.001  -0.002   0.000  -0.003
   25        0.000   0.000   0.000   0.000
   26       -0.001  -0.002   0.000  -0.003
   27        0.000   0.000   0.000   0.000
   28        0.000   0.003   0.000   0.004
   29       -0.000  -0.003   0.000  -0.003
   30       -0.000  -0.003   0.000  -0.003
   31       -0.000  -0.002   0.000  -0.002
   32       -0.000  -0.002   0.000  -0.002
--------------------------------------------------
tot          0.008   0.305   1.517   1.830
 
    CHARGE:  cpu time    1.1898: real time    1.1946
    FORLOC:  cpu time    0.0090: real time    0.0094
    FORNL :  cpu time    6.7470: real time    6.7794
    STRESS:  cpu time   20.2649: real time   20.4465
    FORCOR:  cpu time    0.2770: real time    0.2767
    FORHAR:  cpu time    0.0210: real time    0.0214
    MIXING:  cpu time    0.0020: real time    0.0019
    OFIELD:  cpu time    0.0000: real time    0.0000

  FORCE on cell =-STRESS in cart. coord.  units (eV):
  Direction    XX          YY          ZZ          XY          YZ          ZX
  --------------------------------------------------------------------------------------
  Alpha Z   741.51175   741.51175   741.51175
  Ewald   -4324.14839 -4199.49631 -4089.46693     0.62551    -0.22240    -0.00470
  Hartree  2694.21313  2810.99669  2877.94610     0.24138    -0.12012    -0.00240
  E(xc)   -1231.31658 -1231.67122 -1231.77028    -0.00029    -0.00007    -0.00000
  Local   -1999.48322 -2272.42054 -2462.17523    -0.87581     0.34100     0.00675
  n-local  -974.83498  -968.66394  -965.14083     0.00888    -0.00069    -0.00013
  augment   741.67662   759.18335   763.88426     0.01091     0.00007     0.00017
  Kinetic  4352.37256  4360.53336  4365.18255    -0.01143     0.00347     0.00033
  Fock        0.00000     0.00000     0.00000     0.00000     0.00000     0.00000
  -------------------------------------------------------------------------------------
  Total      -0.00911    -0.02686    -0.02862    -0.00085     0.00127     0.00001
  in kB      -0.03090    -0.09113    -0.09710    -0.00290     0.00432     0.00002
  external pressure =       -0.07 kB  Pullay stress =        0.00 kB


 VOLUME and BASIS-vectors are now :
 -----------------------------------------------------------------------------
  energy-cutoff  :      700.00
  volume of cell :      472.23
      direct lattice vectors                 reciprocal lattice vectors
     7.892671797  0.000045777 -0.000004612     0.126699808 -0.000000786  0.000000040
     0.000048271  7.783241228 -0.000186948    -0.000000745  0.128481178  0.000003101
    -0.000002446 -0.000185541  7.687259307     0.000000076  0.000003125  0.130085374

  length of vectors
     7.892671797  7.783241231  7.687259309     0.126699808  0.128481178  0.130085374


 FORCES acting on ions
    electron-ion (+dipol)            ewald-force                    non-local-force                 convergence-correction
 -----------------------------------------------------------------------------------------------
   0.618E+00 0.630E+01 -.184E-02   -.634E+00 -.620E+01 0.180E-02   0.195E-01 -.102E+00 0.178E-04   0.144E-03 -.397E-03 0.298E-04
   0.409E+01 0.167E+01 0.240E-02   -.409E+01 -.166E+01 -.234E-02   0.443E-02 -.127E-01 -.219E-04   -.398E-04 -.355E-02 -.295E-04
   0.991E+01 -.635E+01 0.198E-02   -.981E+01 0.626E+01 -.178E-02   -.950E-01 0.978E-01 -.253E-04   -.119E-03 0.519E-03 -.166E-03
   0.195E+02 -.140E+01 -.242E-02   -.189E+02 0.139E+01 0.223E-02   -.643E+00 0.582E-02 0.311E-04   0.832E-02 0.359E-02 0.167E-03
   -.348E+00 -.201E+01 0.118E-02   0.380E+00 0.901E+00 -.221E-02   -.291E-01 0.110E+01 -.856E-04   -.164E-03 0.804E-02 0.104E-02
   -.655E+01 0.437E+01 0.747E-02   0.647E+01 -.421E+01 -.633E-02   0.727E-01 -.112E+00 -.416E-04   0.106E-03 -.383E-01 -.103E-02
   -.938E+01 0.252E+00 -.440E-02   0.927E+01 0.926E+00 0.643E-02   0.118E+00 -.117E+01 0.115E-03   -.160E-03 -.899E-02 -.199E-02
   -.184E+02 -.305E+01 -.101E-01   0.191E+02 0.291E+01 0.801E-02   -.666E+00 0.969E-01 0.473E-04   -.177E-02 0.365E-01 0.192E-02
   0.144E+03 -.707E+00 -.280E-02   -.155E+03 0.718E+00 0.260E-02   0.114E+02 -.212E-01 -.130E-03   0.329E-01 0.670E-02 0.339E-03
   -.369E+01 -.213E+02 -.837E-03   0.361E+01 0.226E+02 0.797E-03   0.758E-01 -.133E+01 -.185E-03   -.496E-03 0.268E-02 0.185E-03
   -.228E+01 0.817E+01 0.272E-02   0.230E+01 -.893E+01 -.275E-02   -.115E-01 0.765E+00 0.268E-03   -.448E-04 -.416E-02 -.201E-03
   -.372E+01 0.164E+02 -.372E-03   0.366E+01 -.171E+02 0.239E-03   0.587E-01 0.724E+00 -.518E-04   -.525E-03 -.264E-02 0.196E-03
   -.181E+01 -.841E+00 -.983E+01   0.181E+01 0.146E+01 0.103E+02   -.234E-02 -.617E+00 -.454E+00   0.645E-05 -.665E-02 -.109E-01
   -.180E+01 -.829E+00 0.982E+01   0.181E+01 0.145E+01 -.103E+02   -.215E-02 -.616E+00 0.452E+00   0.488E-05 -.666E-02 0.109E-01
   -.479E+01 0.136E+01 -.254E+02   0.472E+01 -.199E+01 0.266E+02   0.780E-01 0.632E+00 -.118E+01   -.569E-03 0.622E-02 -.127E-01
   -.480E+01 0.137E+01 0.254E+02   0.472E+01 -.200E+01 -.266E+02   0.778E-01 0.633E+00 0.118E+01   -.567E-03 0.622E-02 0.127E-01
   -.757E+02 -.634E+01 -.211E-02   0.824E+02 0.782E+01 0.203E-02   -.665E+01 -.148E+01 -.868E-04   -.476E-01 0.695E-03 0.167E-03
   -.135E+03 0.191E+01 0.300E-02   0.147E+03 -.209E+01 -.300E-02   -.123E+02 0.191E+00 0.144E-03   -.320E-01 -.791E-02 -.157E-03
   -.805E+02 0.585E+01 -.474E-03   0.873E+02 -.721E+01 0.915E-03   -.674E+01 0.136E+01 -.952E-05   -.880E-01 -.350E-04 -.410E-03
   -.875E+02 -.116E+01 -.562E-03   0.903E+02 0.122E+01 0.160E-04   -.270E+01 -.659E-01 0.195E-03   -.370E-01 0.775E-02 0.386E-03
   0.756E+02 -.639E+01 0.125E-02   -.823E+02 0.787E+01 -.175E-02   0.665E+01 -.149E+01 0.339E-03   0.477E-01 0.776E-03 0.170E-03
   0.137E+03 0.172E+01 0.296E-03   -.149E+03 -.189E+01 -.668E-04   0.123E+02 0.185E+00 -.782E-04   0.318E-01 -.768E-02 -.157E-03
   0.816E+02 0.528E+01 -.169E-02   -.886E+02 -.656E+01 0.272E-02   0.698E+01 0.127E+01 -.669E-03   0.877E-01 -.960E-04 -.399E-03
   0.429E+01 0.500E+01 -.177E-02   -.450E+01 -.552E+01 0.149E-02   0.219E+00 0.477E+00 0.319E-03   0.752E-03 0.502E-01 -.480E-04
   -.690E+01 -.515E+02 0.414E-02   0.940E+01 0.572E+02 -.409E-02   -.250E+01 -.575E+01 -.142E-03   -.359E-03 0.810E-02 0.449E-04
   0.420E+01 -.491E+01 0.291E-02   -.442E+01 0.542E+01 -.272E-02   0.228E+00 -.458E+00 -.143E-03   0.832E-03 -.500E-01 -.457E-04
   -.684E+01 0.514E+02 -.384E-02   0.932E+01 -.572E+02 0.369E-02   -.248E+01 0.576E+01 0.132E-03   -.188E-03 -.828E-02 0.435E-04
   -.273E+01 -.362E+01 -.373E-02   0.274E+01 0.376E+01 0.428E-02   -.853E-02 -.147E+00 -.337E-03   0.220E-04 0.502E-02 -.227E-03
   0.231E+01 0.192E+01 0.514E+02   -.240E+01 -.197E+01 -.582E+02   0.999E-01 0.485E-01 0.686E+01   0.139E-03 -.144E-02 -.297E-01
   0.230E+01 0.191E+01 -.514E+02   -.240E+01 -.196E+01 0.582E+02   0.995E-01 0.453E-01 -.686E+01   0.140E-03 -.144E-02 0.297E-01
   -.140E+02 -.217E+01 0.273E+01   0.179E+02 0.225E+01 -.408E+01   -.396E+01 -.816E-01 0.142E+01   -.284E-02 0.131E-02 -.719E-01
   -.140E+02 -.218E+01 -.273E+01   0.179E+02 0.227E+01 0.408E+01   -.396E+01 -.831E-01 -.142E+01   -.283E-02 0.130E-02 0.719E-01
 -----------------------------------------------------------------------------------------------
   0.430E+01 0.146E+00 -.427E-03   -.210E-12 0.244E-13 -.178E-13   -.429E+01 -.142E+00 0.562E-03   -.473E-02 -.263E-02 -.183E-03
 
 
 POSITION                                       TOTAL-FORCE (eV/Angst)
 -----------------------------------------------------------------------------------
      0.00171      0.00239      7.68726         0.003071     -0.000210      0.000003
      0.00812      7.78286      3.84344        -0.000293     -0.000368      0.000003
      0.01177      3.89036      7.68716         0.002239      0.000173      0.000015
      7.72314      3.89102      3.84353        -0.002942     -0.001466      0.000012
      3.94869      7.68433     -0.00018         0.003372     -0.003875     -0.000078
      3.94946      0.02545      3.84364        -0.000741      0.007576      0.000066
      3.95081      3.97869      7.68716         0.002747      0.000736      0.000157
      3.93750      3.87721      3.84352        -0.004113     -0.001090     -0.000162
      6.00856      3.88681      3.84353        -0.005489     -0.003773      0.000005
      3.93787      1.92854      3.84360        -0.004911      0.000802     -0.000037
      3.95163      5.84279      7.68710         0.004777     -0.001080      0.000038
      3.93803      5.85491      3.84348        -0.004666      0.001256      0.000012
      3.95064      7.76725      1.92084         0.002243     -0.003981     -0.000549
      3.95063      7.76709      5.76604         0.002251     -0.003828      0.000570
      3.94011      3.90630      1.90677        -0.001953      0.003380     -0.000433
      3.94012      3.90611      5.78032        -0.001977      0.003569      0.000401
      1.91656      0.02359      0.00000         0.003781     -0.001271     -0.000001
      1.86630      0.00227      3.84363        -0.000150      0.004166     -0.000013
      1.92154      3.86844      7.68716         0.003209     -0.000250      0.000024
      1.85869      3.88686      3.84352        -0.004066     -0.005460      0.000037
      5.97987      0.02356      7.68724         0.002536     -0.001222      0.000010
      6.03886      0.00269      3.84363        -0.000860      0.005706     -0.000005
      5.99096      3.87076     -0.00008         0.000544      0.000534     -0.000032
      7.88987      1.95289      7.68719         0.002691      0.000392     -0.000002
      0.01973      1.90036      3.84359        -0.000703     -0.000601     -0.000045
      7.88969      5.83186     -0.00014         0.003586     -0.000366     -0.000000
      0.01894      5.88203      3.84348        -0.002540     -0.000419      0.000027
      3.95243      1.93884     -0.00003         0.005642     -0.000984     -0.000009
      0.00135      7.78158      1.97611         0.001808     -0.001148      0.000664
      0.00136      7.78161      5.71076         0.001816     -0.001234     -0.000654
      0.05527      3.89494      1.94156        -0.005435      0.002182      0.000154
      0.05528      3.89491      5.74551        -0.005476      0.002155     -0.000178
 -----------------------------------------------------------------------------------
    total drift:                                0.003285      0.000611     -0.000048


--------------------------------------------------------------------------------------------------------



  FREE ENERGIE OF THE ION-ELECTRON SYSTEM (eV)
  ---------------------------------------------------
  free  energy   TOTEN  =      -207.35094112 eV

  energy  without entropy=     -207.34951165  energy(sigma->0) =     -207.35022639
 


--------------------------------------------------------------------------------------------------------


    POTLOK:  cpu time    0.9629: real time    0.9702


--------------------------------------------------------------------------------------------------------


 stress matrix after NEB project (eV)
     -0.00911     -0.00085      0.00001
     -0.00085     -0.02686      0.00127
      0.00001      0.00127     -0.02862
  FORCES: max atom, RMS     0.007612    0.004322
  FORCE total and by dimension    0.024449    0.007576
  Stress total and by dimension    0.040349    0.028619
 Quasi-Newton relaxation of ions (Broydens 2nd method)
  g(Force)  = 0.288E-04   g(Stress)= 0.245E-05

 Reset! Starting new Quasi-Newton update for ions 


--------------------------------------------------------------------------------------------------------


  
 reached required accuracy - stopping structural energy minimisation
 writing wavefunctions
     LOOP+:  cpu time  336.6718: real time  339.3716
    4ORBIT:  cpu time    0.0000: real time    0.0000
 


 total charge     
 
# of ion       s       p       d       tot
------------------------------------------
    1        0.252   6.364   1.833   8.449
    2        0.325   6.515   1.738   8.578
    3        0.269   6.395   1.798   8.462
    4        0.309   6.468   1.876   8.653
    5        0.304   6.446   1.734   8.484
    6        0.299   6.454   1.733   8.486
    7        0.302   6.447   1.732   8.480
    8        0.303   6.441   1.674   8.417
    9        1.576   3.424   0.000   5.000
   10        1.571   3.381   0.000   4.952
   11        1.572   3.433   0.000   5.005
   12        1.574   3.335   0.000   4.909
   13        1.569   3.395   0.000   4.964
   14        1.569   3.396   0.000   4.964
   15        1.569   3.392   0.000   4.961
   16        1.569   3.392   0.000   4.961
   17        1.730   4.387   0.000   6.117
   18        1.733   4.371   0.000   6.104
   19        1.730   4.387   0.000   6.117
   20        1.728   4.367   0.000   6.095
   21        1.730   4.388   0.000   6.117
   22        1.733   4.371   0.000   6.104
   23        1.730   4.385   0.000   6.115
   24        1.729   4.399   0.000   6.129
   25        1.731   4.389   0.000   6.119
   26        1.729   4.398   0.000   6.127
   27        1.731   4.389   0.000   6.119
   28        1.729   4.365   0.000   6.094
   29        1.732   4.399   0.000   6.131
   30        1.732   4.399   0.000   6.131
   31        1.731   4.401   0.000   6.132
   32        1.731   4.401   0.000   6.132
--------------------------------------------------
tot         42.619 148.873  14.117 205.609
 


 magnetization (x)
 
# of ion       s       p       d       tot
------------------------------------------
    1        0.004   0.006   0.835   0.846
    2        0.000   0.000   0.040   0.040
    3        0.003   0.005   0.679   0.688
    4       -0.000   0.000   0.017   0.017
    5       -0.000  -0.000  -0.009  -0.009
    6       -0.001  -0.002  -0.019  -0.021
    7       -0.000  -0.000  -0.009  -0.009
    8       -0.001  -0.002  -0.019  -0.021
    9       -0.000  -0.001   0.000  -0.001
   10       -0.002  -0.142   0.000  -0.144
   11        0.000   0.005   0.000   0.005
   12        0.005   0.334   0.000   0.338
   13        0.001   0.035   0.000   0.036
   14        0.001   0.036   0.000   0.037
   15        0.001   0.039   0.000   0.040
   16        0.001   0.039   0.000   0.039
   17       -0.000  -0.010   0.000  -0.010
   18       -0.000  -0.001   0.000  -0.001
   19       -0.000  -0.009   0.000  -0.009
   20       -0.000  -0.000   0.000  -0.000
   21       -0.000  -0.010   0.000  -0.010
   22       -0.000  -0.001   0.000  -0.001
   23       -0.000  -0.009   0.000  -0.009
   24       -0.001  -0.002   0.000  -0.003
   25        0.000   0.000   0.000   0.000
   26       -0.001  -0.002   0.000  -0.003
   27        0.000   0.000   0.000   0.000
   28        0.000   0.003   0.000   0.004
   29       -0.000  -0.003   0.000  -0.003
   30       -0.000  -0.003   0.000  -0.003
   31       -0.000  -0.002   0.000  -0.002
   32       -0.000  -0.002   0.000  -0.002
--------------------------------------------------
tot          0.008   0.305   1.517   1.830
 

 total amount of memory used by VASP MPI-rank0   108155. kBytes
=======================================================================

   base      :      30000. kBytes
   nonlr-proj:       8396. kBytes
   fftplans  :       8424. kBytes
   grid      :       8783. kBytes
   one-center:        124. kBytes
   wavefun   :      52428. kBytes
 
  
  
 General timing and accounting informations for this job:
 ========================================================
  
                  Total CPU time used (sec):      387.179
                            User time (sec):      365.801
                          System time (sec):       21.378
                         Elapsed time (sec):      401.360
  
                   Maximum memory used (kb):      224276.
                   Average memory used (kb):           0.
  
                          Minor page faults:       117966
                          Major page faults:            2
                 Voluntary context switches:        65680
