 vasp.5.4.4.18Apr17-6-g9f103f2a35 (build Jul 16 2019 12:12:28) complex          
  
 executed on             LinuxIFC date 2020.02.03  21:04:16
 running on   96 total cores
 distrk:  each k-point on   96 cores,    1 groups
 distr:  one band on NCORES_PER_BAND=   8 cores,   12 groups


--------------------------------------------------------------------------------------------------------


 INCAR:
 POTCAR:    PAW_PBE Li_sv 10Sep2004               
 POTCAR:    PAW_PBE Ti_pv 07Sep2000               
 POTCAR:    PAW_PBE O 08Apr2002                   
 POTCAR:    PAW_PBE F 08Apr2002                   
 POTCAR:    PAW_PBE Li_sv 10Sep2004               
   VRHFIN =Li: 1s2s2p                                                           
   LEXCH  = PE                                                                  
   EATOM  =   202.7858 eV,   14.9043 Ry                                         
                                                                                
   TITEL  = PAW_PBE Li_sv 10Sep2004                                             
   LULTRA =        F    use ultrasoft PP ?                                      
   IUNSCR =        0    unscreen: 0-lin 1-nonlin 2-no                           
   RPACOR =    0.000    partial core radius                                     
   POMASS =    7.010; ZVAL   =    3.000    mass and valenz                      
   RCORE  =    1.700    outmost cutoff radius                                   
   RWIGS  =    2.050; RWIGS  =    1.085    wigner-seitz radius (au A)           
   ENMAX  =  499.034; ENMIN  =  374.276 eV                                      
   ICORE  =        2    local potential                                         
   LCOR   =        T    correct aug charges                                     
   LPAW   =        T    paw PP                                                  
   EAUG   =  628.945                                                            
   RMAX   =    1.732    core radius for proj-oper                               
   RAUG   =    1.300    factor for augmentation sphere                          
   RDEP   =    1.728    radius for radial grids                                 
   RDEPT  =    1.329    core radius for aug-charge                              
                                                                                
   Atomic configuration                                                         
    4 entries                                                                   
     n  l   j            E        occ.                                          
     1  0  0.50       -51.8549   2.0000                                         
     2  0  0.50        -2.8742   1.0000                                         
     2  1  0.50        -1.3606   0.0000                                         
     3  2  1.50        -1.3606   0.0000                                         
   Description                                                                  
     l       E           TYP  RCUT    TYP  RCUT                                 
     0    -51.8548813     23  1.400                                             
     0     -2.8742052     23  1.700                                             
     1     -1.3605826     23  1.400                                             
     2     -1.3605826     23  1.400                                             
  local pseudopotential read in
  atomic valenz-charges read in
  non local Contribution for L=           0  read in
    real space projection operators read in
  non local Contribution for L=           0  read in
    real space projection operators read in
  non local Contribution for L=           1  read in
    real space projection operators read in
    PAW grid and wavefunctions read in
 
   number of l-projection  operators is LMAX  =           3
   number of lm-projection operators is LMMAX =           5
 
 POTCAR:    PAW_PBE Ti_pv 07Sep2000               
   VRHFIN =Ti: d3 s1                                                            
   LEXCH  = PE                                                                  
   EATOM  =  1042.5995 eV,   76.6289 Ry                                         
                                                                                
   TITEL  = PAW_PBE Ti_pv 07Sep2000                                             
   LULTRA =        F    use ultrasoft PP ?                                      
   IUNSCR =        1    unscreen: 0-lin 1-nonlin 2-no                           
   RPACOR =    2.200    partial core radius                                     
   POMASS =   47.880; ZVAL   =   10.000    mass and valenz                      
   RCORE  =    2.500    outmost cutoff radius                                   
   RWIGS  =    2.500; RWIGS  =    1.323    wigner-seitz radius (au A)           
   ENMAX  =  222.335; ENMIN  =  166.751 eV                                      
   RCLOC  =    1.701    cutoff for local pot                                    
   LCOR   =        T    correct aug charges                                     
   LPAW   =        T    paw PP                                                  
   EAUG   =  482.848                                                            
   DEXC   =    0.000                                                            
   RMAX   =    2.564    core radius for proj-oper                               
   RAUG   =    1.300    factor for augmentation sphere                          
   RDEP   =    2.538    radius for radial grids                                 
   RDEPT  =    1.952    core radius for aug-charge                              
                                                                                
   Atomic configuration                                                         
    8 entries                                                                   
     n  l   j            E        occ.                                          
     1  0  0.50     -4865.3608   2.0000                                         
     2  0  0.50      -533.1368   2.0000                                         
     2  1  1.50      -440.5031   6.0000                                         
     3  0  0.50       -59.3186   2.0000                                         
     3  1  1.50       -35.7012   6.0000                                         
     3  2  2.50        -1.9157   3.0000                                         
     4  0  0.50        -3.7291   1.0000                                         
     4  3  2.50        -1.3606   0.0000                                         
   Description                                                                  
     l       E           TYP  RCUT    TYP  RCUT                                 
     1    -35.7012140     23  2.300                                             
     1     -1.3605826     23  2.300                                             
     2     -1.9156996     23  2.500                                             
     2     -0.4063033     23  2.500                                             
     0     -3.7290856     23  2.500                                             
     0     20.4087390     23  2.500                                             
  local pseudopotential read in
  partial core-charges read in
  partial kinetic energy density read in
  atomic valenz-charges read in
  non local Contribution for L=           1  read in
    real space projection operators read in
  non local Contribution for L=           1  read in
    real space projection operators read in
  non local Contribution for L=           2  read in
    real space projection operators read in
  non local Contribution for L=           2  read in
    real space projection operators read in
  non local Contribution for L=           0  read in
    real space projection operators read in
  non local Contribution for L=           0  read in
    real space projection operators read in
    PAW grid and wavefunctions read in
 
   number of l-projection  operators is LMAX  =           6
   number of lm-projection operators is LMMAX =          18
 
 POTCAR:    PAW_PBE O 08Apr2002                   
   VRHFIN =O: s2p4                                                              
   LEXCH  = PE                                                                  
   EATOM  =   432.3788 eV,   31.7789 Ry                                         
                                                                                
   TITEL  = PAW_PBE O 08Apr2002                                                 
   LULTRA =        F    use ultrasoft PP ?                                      
   IUNSCR =        1    unscreen: 0-lin 1-nonlin 2-no                           
   RPACOR =    1.200    partial core radius                                     
   POMASS =   16.000; ZVAL   =    6.000    mass and valenz                      
   RCORE  =    1.520    outmost cutoff radius                                   
   RWIGS  =    1.550; RWIGS  =    0.820    wigner-seitz radius (au A)           
   ENMAX  =  400.000; ENMIN  =  300.000 eV                                      
   ICORE  =        2    local potential                                         
   LCOR   =        T    correct aug charges                                     
   LPAW   =        T    paw PP                                                  
   EAUG   =  605.392                                                            
   DEXC   =    0.000                                                            
   RMAX   =    1.553    core radius for proj-oper                               
   RAUG   =    1.300    factor for augmentation sphere                          
   RDEP   =    1.550    radius for radial grids                                 
   RDEPT  =    1.329    core radius for aug-charge                              
                                                                                
   Atomic configuration                                                         
    4 entries                                                                   
     n  l   j            E        occ.                                          
     1  0  0.50      -514.6923   2.0000                                         
     2  0  0.50       -23.9615   2.0000                                         
     2  1  0.50        -9.0305   4.0000                                         
     3  2  1.50        -9.5241   0.0000                                         
   Description                                                                  
     l       E           TYP  RCUT    TYP  RCUT                                 
     0    -23.9615318     23  1.200                                             
     0     -9.5240782     23  1.200                                             
     1     -9.0304911     23  1.520                                             
     1      8.1634956     23  1.520                                             
     2     -9.5240782      7  1.500                                             
  local pseudopotential read in
  partial core-charges read in
  partial kinetic energy density read in
  kinetic energy density of atom read in
  atomic valenz-charges read in
  non local Contribution for L=           0  read in
    real space projection operators read in
  non local Contribution for L=           0  read in
    real space projection operators read in
  non local Contribution for L=           1  read in
    real space projection operators read in
  non local Contribution for L=           1  read in
    real space projection operators read in
    PAW grid and wavefunctions read in
 
   number of l-projection  operators is LMAX  =           4
   number of lm-projection operators is LMMAX =           8
 
 POTCAR:    PAW_PBE F 08Apr2002                   
   VRHFIN =F: s2p5                                                              
   LEXCH  = PE                                                                  
   EATOM  =   659.6475 eV,   48.4827 Ry                                         
                                                                                
   TITEL  = PAW_PBE F 08Apr2002                                                 
   LULTRA =        F    use ultrasoft PP ?                                      
   IUNSCR =        1    unscreen: 0-lin 1-nonlin 2-no                           
   RPACOR =    1.200    partial core radius                                     
   POMASS =   18.998; ZVAL   =    7.000    mass and valenz                      
   RCORE  =    1.520    outmost cutoff radius                                   
   RWIGS  =    1.500; RWIGS  =    0.794    wigner-seitz radius (au A)           
   ENMAX  =  400.000; ENMIN  =  300.000 eV                                      
   ICORE  =        2    local potential                                         
   LCOR   =        T    correct aug charges                                     
   LPAW   =        T    paw PP                                                  
   EAUG   =  613.614                                                            
   RMAX   =    1.555    core radius for proj-oper                               
   RAUG   =    1.300    factor for augmentation sphere                          
   RDEP   =    1.539    radius for radial grids                                 
   RDEPT  =    1.299    core radius for aug-charge                              
                                                                                
   Atomic configuration                                                         
    4 entries                                                                   
     n  l   j            E        occ.                                          
     1  0  0.50      -663.3661   2.0000                                         
     2  0  0.50       -29.8995   2.0000                                         
     2  1  0.50       -11.1114   5.0000                                         
     3  2  1.50       -10.8847   0.0000                                         
   Description                                                                  
     l       E           TYP  RCUT    TYP  RCUT                                 
     0    -29.8995018     23  1.200                                             
     0     -9.5240782     23  1.200                                             
     1    -11.1113914     23  1.520                                             
     1      1.3605826     23  1.520                                             
     2    -10.8846608      7  1.500                                             
  local pseudopotential read in
  partial core-charges read in
  partial kinetic energy density read in
  atomic valenz-charges read in
  non local Contribution for L=           0  read in
    real space projection operators read in
  non local Contribution for L=           0  read in
    real space projection operators read in
  non local Contribution for L=           1  read in
    real space projection operators read in
  non local Contribution for L=           1  read in
    real space projection operators read in
    PAW grid and wavefunctions read in
 
   number of l-projection  operators is LMAX  =           4
   number of lm-projection operators is LMMAX =           8
 
 Optimization of the real space projectors (new method)

 maximal supplied QI-value         = 22.11
 optimisation between [QCUT,QGAM] = [ 11.28, 22.77] = [ 35.61,145.23] Ry 
 Optimized for a Real-space Cutoff    1.31 Angstroem

   l    n(q)    QCUT    max X(q) W(low)/X(q) W(high)/X(q)  e(spline) 
   0      9    11.276    10.506    0.19E-04    0.17E-04    0.32E-07
   0      9    11.276     8.367    0.38E-04    0.40E-04    0.65E-07
   1      8    11.276     8.983    0.55E-04    0.98E-04    0.20E-06
 Optimization of the real space projectors (new method)

 maximal supplied QI-value         = 15.12
 optimisation between [QCUT,QGAM] = [ 11.34, 22.83] = [ 36.00,145.93] Ry 
 Optimized for a Real-space Cutoff    1.56 Angstroem

   l    n(q)    QCUT    max X(q) W(low)/X(q) W(high)/X(q)  e(spline) 
   1     10    11.338     4.216    0.27E-04    0.12E-04    0.66E-07
   1     10    11.338     5.422    0.81E-04    0.24E-04    0.19E-06
   2     10    11.338    72.084    0.64E-04    0.21E-03    0.51E-06
   2     10    11.338    65.965    0.63E-04    0.21E-03    0.50E-06
   0     11    11.338    41.531    0.33E-04    0.54E-04    0.13E-06
   0     11    11.338    16.290    0.26E-04    0.41E-04    0.11E-06
 Optimization of the real space projectors (new method)

 maximal supplied QI-value         = 24.76
 optimisation between [QCUT,QGAM] = [ 11.39, 22.77] = [ 36.31,145.25] Ry 
 Optimized for a Real-space Cutoff    1.20 Angstroem

   l    n(q)    QCUT    max X(q) W(low)/X(q) W(high)/X(q)  e(spline) 
   0      8    11.387    20.381    0.89E-04    0.31E-03    0.27E-06
   0      8    11.387    15.268    0.93E-04    0.32E-03    0.29E-06
   1      8    11.387     5.964    0.53E-04    0.28E-03    0.29E-06
   1      8    11.387     5.382    0.37E-04    0.22E-03    0.26E-06
 Optimization of the real space projectors (new method)

 maximal supplied QI-value         = 24.76
 optimisation between [QCUT,QGAM] = [ 11.39, 22.77] = [ 36.31,145.25] Ry 
 Optimized for a Real-space Cutoff    1.20 Angstroem

   l    n(q)    QCUT    max X(q) W(low)/X(q) W(high)/X(q)  e(spline) 
   0      8    11.387    14.049    0.69E-04    0.23E-03    0.18E-06
   0      8    11.387     8.945    0.88E-04    0.30E-03    0.26E-06
   1      8    11.387     7.086    0.62E-04    0.27E-03    0.27E-06
   1      8    11.387     6.747    0.46E-04    0.23E-03    0.25E-06

 ----------------------------------------------------------------------------- 
|                                                                             |
|  ADVICE TO THIS USER RUNNING 'VASP/VAMP'   (HEAR YOUR MASTER'S VOICE ...):  |
|                                                                             |
|      You enforced a specific xc-type in the INCAR file,                     |
|      a different type was found on the POTCAR file                          |
|          I HOPE YOU KNOW, WHAT YOU ARE  DOING                               |
|                                                                             |
 ----------------------------------------------------------------------------- 

  PAW_PBE Li_sv 10Sep2004               :
 energy of atom  1       EATOM= -202.7858
 kinetic energy error for atom=    0.0143 (will be added to EATOM!!)
  PAW_PBE Ti_pv 07Sep2000               :
 energy of atom  2       EATOM=-1042.5995
 kinetic energy error for atom=    0.0024 (will be added to EATOM!!)
  PAW_PBE O 08Apr2002                   :
 energy of atom  3       EATOM= -432.3788
 kinetic energy error for atom=    0.0224 (will be added to EATOM!!)
  PAW_PBE F 08Apr2002                   :
 energy of atom  4       EATOM= -659.6475
 kinetic energy error for atom=    0.0354 (will be added to EATOM!!)
 
 
 POSCAR: config 63                               
  positions in direct lattice
  velocities in cartesian coordinates
 exchange correlation table for  LEXCH =       14
   RHO(1)=    0.500       N(1)  =     2000
   RHO(2)=  100.500       N(2)  =     4000

 VTST: version 3.2, (02/03/18)

 CHAIN: initializing optimizer
 
 OPT: Using VASP QUASI-newton optimizer
 CHAIN: Read ICHAIN            0
 
 POSCAR: config 63                               
  positions in direct lattice
  velocities in cartesian coordinates
 


--------------------------------------------------------------------------------------------------------


 ion  position               nearest neighbor table
   1  0.909  0.853  0.606- 119 2.02  72 2.06 204 2.23  21 2.67
   2  0.995  0.996  0.996- 118 1.86  68 1.88 103 1.89 130 2.02 171 2.02 212 2.03
   3  0.998  0.992  0.493- 119 1.76  67 1.84 172 1.95 193 1.98 131 2.05 213 2.09
   4  0.006  0.496  0.998-  89 1.83 117 1.86 138 1.93 132 1.98 214 2.01 194 2.02
   5  0.994  0.499  0.507-  66 1.83 104 1.84 215 1.90 223 1.98 173 2.01 137 2.03
   6  0.494  0.995  1.000- 101 1.83 121 1.84 140 1.95 133 1.96 216 2.01 174 2.03
   7  0.500  0.008  0.500- 112 1.77 191 1.90 134 1.91 139 1.92 175 1.93 225 2.01
   8  0.504  0.496  0.996-  70 1.88 120 1.88  90 1.89 192 2.02 135 2.03 217 2.04
   9  0.492  0.499  0.495- 102 1.80  69 1.86 224 1.97 218 1.98 136 2.01 176 2.06
  10  0.006  0.003  0.256-  67 1.84  91 1.84 219 1.95 227 1.97 130 2.00 197 2.06
  11  0.001  0.009  0.758-  68 1.79 113 1.83 177 1.94 198 2.00 228 2.04 131 2.05
  12  0.994  0.494  0.251- 107 1.82 122 1.86 137 1.93 132 1.96 220 2.01 178 2.02
  13  0.992  0.498  0.742- 108 1.82  66 1.82 226 1.92 221 1.97 138 2.02 179 2.04
  14  0.506  0.008  0.250- 114 1.81  92 1.84 133 1.92 139 1.97 195 1.99 231 2.04
  15  0.492  0.005  0.752- 105 1.80 115 1.84 140 1.93 134 1.99 232 2.01 180 2.03
  16  0.493  0.497  0.257-  69 1.82 106 1.84 229 1.95 222 2.00 135 2.01 181 2.04
  17  0.501  0.504  0.758-  70 1.80 116 1.87 182 1.94 196 1.97 230 2.03 136 2.06
  18  0.995  0.257  0.001- 117 1.82 110 1.88 141 1.96 146 1.96 183 2.00 212 2.02
  19  0.999  0.247  0.491-  74 1.77 213 1.90 184 1.93 202 1.93 223 1.94 142 2.02
  20  0.998  0.758  0.005- 118 1.81  71 1.85 203 1.94 185 1.97 148 2.02 214 2.06
  21  0.000  0.751  0.499-  72 1.96 119 1.97 147 1.98 186 1.99 215 2.01 204 2.04   1 2.67
  22  0.495  0.258  0.001- 120 1.80 109 1.84 150 1.96 143 1.97 187 2.03 216 2.06
  23  0.508  0.245  0.500-  93 1.80 112 1.90 144 1.92 149 1.93 224 1.97 199 2.00
  24  0.507  0.757  0.999-  94 1.83 121 1.83 152 1.93 145 1.99 217 2.01 200 2.01
  25  0.507  0.753  0.509-  73 1.79  95 1.83 218 1.96 225 1.96 201 1.99 151 2.07
  26  1.000  0.258  0.255- 122 1.79  74 1.88 209 1.94 188 1.95 141 1.99 219 2.02
  27  0.006  0.243  0.747- 113 1.81  96 1.83 142 1.96 146 1.97 226 2.03 210 2.05
  28  0.007  0.749  0.240-  71 1.80  97 1.83 220 1.95 227 1.98 147 2.03 211 2.06
  29  0.994  0.750  0.743-  72 1.80 111 1.86 221 1.96 228 1.96 189 2.01 148 2.03
  30  0.508  0.242  0.251-  98 1.82 114 1.82 143 1.92 149 1.96 229 2.01 205 2.02
  31  0.506  0.243  0.750-  99 1.84 115 1.84 150 1.93 144 1.97 206 2.02 230 2.02
  32  0.507  0.752  0.252- 100 1.80 151 1.92 231 1.93 222 1.94 145 1.94 207 2.00
  33  0.501  0.742  0.744- 116 1.80  73 1.84 190 1.93 208 1.96 152 2.02 232 2.06
  34  0.256  0.999  0.006-  75 1.84 101 1.86 246 1.93 233 1.96 171 2.01 157 2.04
  35  0.249  0.993  0.507- 128 1.82  76 1.84 172 1.94 191 1.99 234 2.02 156 2.02
  36  0.243  0.508  0.998- 123 1.82  89 1.84 159 1.93 153 1.97 192 2.02 245 2.03
  37  0.254  0.494  0.507-  77 1.85 102 1.87 127 1.88 173 2.03 235 2.04 158 2.05
  38  0.757  0.000  0.995- 103 1.79  81 1.87 236 1.95 249 1.96 174 2.04 154 2.04
  39  0.749  0.008  0.494-  80 1.83 124 1.83 193 1.92 175 1.98 155 2.00 250 2.03
  40  0.742  0.501  0.005-  90 1.80  78 1.87 237 1.95 247 1.96 161 2.03 194 2.05
  41  0.756  0.498  0.505-  79 1.84 104 1.85 248 1.95 238 1.98 176 2.01 160 2.02
  42  0.244  0.002  0.244-  75 1.84  91 1.84 239 1.93 252 1.96 156 2.04 195 2.06
  43  0.257  0.998  0.744-  76 1.83 105 1.84 253 1.93 240 1.97 157 2.02 177 2.02
  44  0.255  0.492  0.252- 129 1.83 106 1.83 158 1.93 153 1.97 241 2.03 178 2.04
  45  0.247  0.506  0.741-  77 1.79 125 1.83 179 1.95 196 1.97 251 2.03 159 2.05
  46  0.745  0.000  0.256-  92 1.85  80 1.86 256 1.94 242 1.95 154 1.99 197 1.99
  47  0.748  0.007  0.757-  81 1.81 126 1.83 180 1.94 198 1.98 257 2.03 155 2.06
  48  0.756  0.499  0.243-  78 1.81 107 1.85 243 1.95 254 1.96 181 2.02 160 2.05
  49  0.757  0.498  0.743- 108 1.83  79 1.83 255 1.93 244 1.98 182 2.02 161 2.03
  50  0.257  0.251  0.006- 109 1.83  82 1.86 245 1.93 233 1.97 168 2.02 183 2.05
  51  0.253  0.256  0.506- 127 1.80  83 1.85 199 1.96 184 2.01 167 2.03 234 2.05
  52  0.252  0.743  0.994- 123 1.82  86 1.83 200 1.94 185 1.96 162 2.03 246 2.04
  53  0.253  0.755  0.493-  85 1.83 128 1.87 186 1.92 201 1.95 235 2.00 163 2.05
  54  0.757  0.251  0.007- 110 1.80  84 1.85 236 1.94 247 1.94 170 2.03 187 2.03
  55  0.743  0.243  0.498- 124 1.82  93 1.84 169 1.93 164 1.95 248 2.00 202 2.03
  56  0.742  0.750  0.995-  94 1.82  88 1.83 237 1.94 249 1.95 203 2.02 165 2.03
  57  0.742  0.752  0.494-  95 1.81  87 1.85 238 1.95 250 1.97 204 1.98 166 2.03
  58  0.252  0.258  0.244- 129 1.82  82 1.83 205 1.96 188 1.99 167 2.03 239 2.03
  59  0.244  0.251  0.744-  83 1.83  96 1.85 251 1.93 240 1.97 168 2.03 206 2.04
  60  0.244  0.748  0.256-  97 1.83  85 1.84 241 1.94 252 1.97 162 2.03 207 2.06
  61  0.248  0.742  0.757- 125 1.81  86 1.84 189 1.94 208 1.97 163 2.03 253 2.04
  62  0.743  0.251  0.242-  84 1.79  98 1.83 254 1.93 242 1.95 209 2.03 169 2.06
  63  0.744  0.242  0.751- 126 1.82  99 1.84 170 1.93 164 1.99 210 2.01 255 2.04
  64  0.746  0.751  0.257-  87 1.82 100 1.89 243 1.93 256 1.94 211 1.97 165 2.02
  65  0.756  0.751  0.758- 111 1.81  88 1.83 257 1.94 244 1.96 190 2.02 166 2.05
  66  0.006  0.499  0.625-  13 1.82   5 1.83
  67  0.994  0.005  0.374-  10 1.84   3 1.84
  68  0.997  0.003  0.874-  11 1.79   2 1.88
  69  0.501  0.495  0.375-  16 1.82   9 1.86
  70  0.495  0.499  0.875-  17 1.80   8 1.88
  71  0.998  0.745  0.124-  28 1.80  20 1.85
  72  0.995  0.754  0.626-  29 1.80  21 1.96   1 2.06
  73  0.501  0.756  0.625-  25 1.79  33 1.84
  74  0.996  0.246  0.376-  19 1.77  26 1.88
  75  0.254  0.003  0.125-  42 1.84  34 1.84
  76  0.252  0.004  0.626-  43 1.83  35 1.84
  77  0.241  0.496  0.626-  45 1.79  37 1.85
  78  0.752  0.494  0.126-  48 1.81  40 1.87
  79  0.747  0.496  0.624-  49 1.83  41 1.84
  80  0.752  0.997  0.376-  39 1.83  46 1.86
  81  0.748  0.997  0.874-  47 1.81  38 1.87
  82  0.247  0.249  0.126-  58 1.83  50 1.86
  83  0.254  0.249  0.625-  59 1.83  51 1.85
  84  0.744  0.256  0.126-  62 1.79  54 1.85
  85  0.256  0.747  0.374-  53 1.83  60 1.84
  86  0.250  0.753  0.875-  52 1.83  61 1.84
  87  0.754  0.755  0.375-  64 1.82  57 1.85
  88  0.747  0.755  0.876-  56 1.83  65 1.83
  89  0.124  0.503  0.996-   4 1.83  36 1.84
  90  0.626  0.507  0.999-  40 1.80   8 1.89
  91  0.126  0.003  0.252-  10 1.84  42 1.84
  92  0.625  1.000  0.251-  14 1.84  46 1.85
  93  0.624  0.255  0.497-  23 1.80  55 1.84
  94  0.624  0.743  0.005-  56 1.82  24 1.83
  95  0.624  0.762  0.496-  57 1.81  25 1.83
  96  0.124  0.250  0.748-  27 1.83  59 1.85
  97  0.126  0.752  0.251-  60 1.83  28 1.83
  98  0.626  0.246  0.260-  30 1.82  62 1.83
  99  0.625  0.251  0.745-  63 1.84  31 1.84
 100  0.624  0.755  0.251-  32 1.80  64 1.89
 101  0.376  0.001  0.993-   6 1.83  34 1.86
 102  0.376  0.503  0.503-   9 1.80  37 1.87
 103  0.873  0.003  0.002-  38 1.79   2 1.89
 104  0.875  0.497  0.498-   5 1.84  41 1.85
 105  0.376  0.996  0.755-  15 1.80  43 1.84
 106  0.374  0.497  0.250-  44 1.83  16 1.84
 107  0.876  0.499  0.254-  12 1.82  48 1.85
 108  0.875  0.506  0.748-  13 1.82  49 1.83
 109  0.376  0.247  0.002-  50 1.83  22 1.84
 110  0.874  0.247  0.003-  54 1.80  18 1.88
 111  0.874  0.751  0.749-  65 1.81  29 1.86
 112  0.508  0.122  0.498-   7 1.77  23 1.90
 113  0.993  0.127  0.743-  27 1.81  11 1.83
 114  0.496  0.125  0.260-  14 1.81  30 1.82
 115  0.500  0.124  0.745-  15 1.84  31 1.84
 116  0.500  0.626  0.748-  33 1.80  17 1.87
 117  0.999  0.375  0.004-  18 1.82   4 1.86
 118  0.001  0.875  0.001-  20 1.81   2 1.86
 119  0.987  0.879  0.504-   3 1.76  21 1.97   1 2.02
 120  0.502  0.374  0.005-  22 1.80   8 1.88
 121  0.504  0.876  0.002-  24 1.83   6 1.84
 122  0.006  0.374  0.247-  26 1.79  12 1.86
 123  0.255  0.625  0.002-  52 1.82  36 1.82
 124  0.742  0.126  0.502-  55 1.82  39 1.83
 125  0.249  0.625  0.750-  61 1.81  45 1.83
 126  0.753  0.125  0.746-  63 1.82  47 1.83
 127  0.250  0.373  0.494-  51 1.80  37 1.88
 128  0.254  0.876  0.500-  35 1.82  53 1.87
 129  0.243  0.374  0.256-  58 1.82  44 1.83
 130  0.001  0.003  0.126-  10 2.00   2 2.02
 131  0.001  0.996  0.626-   3 2.05  11 2.05
 132  0.999  0.509  0.125-  12 1.96   4 1.98
 133  0.496  0.005  0.126-  14 1.92   6 1.96
 134  0.499  0.991  0.623-   7 1.91  15 1.99
 135  0.501  0.506  0.127-  16 2.01   8 2.03
 136  0.506  0.499  0.625-   9 2.01  17 2.06
 137  0.005  0.494  0.376-  12 1.93   5 2.03
 138  0.997  0.499  0.873-   4 1.93  13 2.02
 139  0.502  0.992  0.377-   7 1.92  14 1.97
 140  0.513  0.003  0.875-  15 1.93   6 1.95
 141  0.006  0.246  0.127-  18 1.96  26 1.99
 142  0.998  0.259  0.621-  27 1.96  19 2.02
 143  0.506  0.241  0.127-  30 1.92  22 1.97
 144  0.493  0.250  0.623-  23 1.92  31 1.97
 145  0.496  0.748  0.127-  32 1.94  24 1.99
 146  0.997  0.250  0.874-  18 1.96  27 1.97
 147  0.992  0.753  0.371-  21 1.98  28 2.03
 148  0.002  0.750  0.874-  20 2.02  29 2.03
 149  0.493  0.260  0.376-  23 1.93  30 1.96
 150  0.503  0.249  0.874-  31 1.93  22 1.96
 151  0.494  0.752  0.376-  32 1.92  25 2.07
 152  0.499  0.750  0.874-  24 1.93  33 2.02
 153  0.246  0.495  0.125-  44 1.97  36 1.97
 154  0.747  0.006  0.127-  46 1.99  38 2.04
 155  0.745  0.997  0.623-  39 2.00  47 2.06
 156  0.253  0.001  0.376-  35 2.02  42 2.04
 157  0.244  0.995  0.875-  43 2.02  34 2.04
 158  0.246  0.511  0.375-  44 1.93  37 2.05
 159  0.258  0.497  0.874-  36 1.93  45 2.05
 160  0.745  0.506  0.375-  41 2.02  48 2.05
 161  0.751  0.504  0.874-  40 2.03  49 2.03
 162  0.253  0.754  0.125-  60 2.03  52 2.03
 163  0.253  0.751  0.626-  61 2.03  53 2.05
 164  0.754  0.260  0.623-  55 1.95  63 1.99
 165  0.753  0.747  0.126-  64 2.02  56 2.03
 166  0.746  0.750  0.626-  57 2.03  65 2.05
 167  0.251  0.243  0.375-  58 2.03  51 2.03
 168  0.250  0.251  0.875-  50 2.02  59 2.03
 169  0.761  0.246  0.374-  55 1.93  62 2.06
 170  0.750  0.247  0.876-  63 1.93  54 2.03
 171  0.126  0.001  0.001-  34 2.01   2 2.02
 172  0.124  0.003  0.498-  35 1.94   3 1.95
 173  0.124  0.500  0.494-   5 2.01  37 2.03
 174  0.625  0.001  0.006-   6 2.03  38 2.04
 175  0.623  0.984  0.501-   7 1.93  39 1.98
 176  0.625  0.496  0.499-  41 2.01   9 2.06
 177  0.126  0.002  0.749-  11 1.94  43 2.02
 178  0.124  0.507  0.248-  12 2.02  44 2.04
 179  0.123  0.495  0.761-  45 1.95  13 2.04
 180  0.623  0.997  0.743-  47 1.94  15 2.03
 181  0.625  0.499  0.249-  48 2.02  16 2.04
 182  0.626  0.495  0.754-  17 1.94  49 2.02
 183  0.125  0.251  0.996-  18 2.00  50 2.05
 184  0.124  0.243  0.500-  19 1.93  51 2.01
 185  0.125  0.746  0.001-  52 1.96  20 1.97
 186  0.129  0.750  0.499-  53 1.92  21 1.99
 187  0.626  0.250  0.996-  22 2.03  54 2.03
 188  0.125  0.238  0.255-  26 1.95  58 1.99
 189  0.123  0.753  0.749-  61 1.94  29 2.01
 190  0.626  0.753  0.751-  33 1.93  65 2.02
 191  0.377  0.007  0.498-   7 1.90  35 1.99
 192  0.373  0.496  0.006-  36 2.02   8 2.02
 193  0.873  0.009  0.512-  39 1.92   3 1.98
 194  0.875  0.499  0.998-   4 2.02  40 2.05
 195  0.377  0.996  0.256-  14 1.99  42 2.06
 196  0.374  0.497  0.742-  17 1.97  45 1.97
 197  0.873  0.999  0.245-  46 1.99  10 2.06
 198  0.873  0.990  0.739-  47 1.98  11 2.00
 199  0.379  0.243  0.496-  51 1.96  23 2.00
 200  0.377  0.756  0.001-  52 1.94  24 2.01
 201  0.379  0.743  0.502-  53 1.95  25 1.99
 202  0.874  0.252  0.503-  19 1.93  55 2.03
 203  0.872  0.754  0.998-  20 1.94  56 2.02
 204  0.869  0.751  0.513-  57 1.98  21 2.04   1 2.23
 205  0.378  0.257  0.249-  58 1.96  30 2.02
 206  0.376  0.251  0.754-  31 2.02  59 2.04
 207  0.378  0.748  0.247-  32 2.00  60 2.06
 208  0.375  0.757  0.751-  33 1.96  61 1.97
 209  0.874  0.254  0.246-  26 1.94  62 2.03
 210  0.874  0.256  0.748-  63 2.01  27 2.05
 211  0.874  0.747  0.248-  64 1.97  28 2.06
 212  0.004  0.127  0.001-  18 2.02   2 2.03
 213  0.996  0.126  0.511-  19 1.90   3 2.09
 214  0.994  0.625  0.994-   4 2.01  20 2.06
 215  0.001  0.621  0.492-   5 1.90  21 2.01
 216  0.505  0.125  1.000-   6 2.01  22 2.06
 217  0.490  0.627  0.001-  24 2.01   8 2.04
 218  0.508  0.627  0.499-  25 1.96   9 1.98
 219  0.992  0.128  0.246-  10 1.95  26 2.02
 220  1.000  0.624  0.258-  28 1.95  12 2.01
 221  0.008  0.624  0.753-  29 1.96  13 1.97
 222  0.502  0.626  0.254-  32 1.94  16 2.00
 223  0.006  0.372  0.498-  19 1.94   5 1.98
 224  0.495  0.372  0.505-  23 1.97   9 1.97
 225  0.488  0.878  0.496-  25 1.96   7 2.01
 226  0.997  0.374  0.752-  13 1.92  27 2.03
 227  0.995  0.876  0.248-  10 1.97  28 1.98
 228  0.999  0.877  0.748-  29 1.96  11 2.04
 229  0.503  0.372  0.242-  16 1.95  30 2.01
 230  0.498  0.373  0.747-  31 2.02  17 2.03
 231  0.496  0.876  0.248-  32 1.93  14 2.04
 232  0.503  0.875  0.756-  15 2.01  33 2.06
 233  0.245  0.125  0.993-  34 1.96  50 1.97
 234  0.250  0.124  0.497-  35 2.02  51 2.05
 235  0.249  0.626  0.505-  53 2.00  37 2.04
 236  0.743  0.126  0.000-  54 1.94  38 1.95
 237  0.761  0.626  0.002-  56 1.94  40 1.95
 238  0.746  0.626  0.500-  57 1.95  41 1.98
 239  0.260  0.126  0.254-  42 1.93  58 2.03
 240  0.252  0.125  0.758-  43 1.97  59 1.97
 241  0.251  0.624  0.242-  60 1.94  44 2.03
 242  0.758  0.126  0.251-  62 1.95  46 1.95
 243  0.746  0.625  0.249-  64 1.93  48 1.95
 244  0.741  0.625  0.749-  65 1.96  49 1.98
 245  0.249  0.376  0.998-  50 1.93  36 2.03
 246  0.246  0.874  0.003-  34 1.93  52 2.04
 247  0.748  0.375  0.990-  54 1.94  40 1.96
 248  0.751  0.373  0.491-  41 1.95  55 2.00
 249  0.746  0.875  0.011-  56 1.95  38 1.96
 250  0.762  0.878  0.508-  57 1.97  39 2.03
 251  0.252  0.376  0.756-  59 1.93  45 2.03
 252  0.255  0.876  0.251-  42 1.96  60 1.97
 253  0.245  0.874  0.746-  43 1.93  61 2.04
 254  0.749  0.374  0.263-  62 1.93  48 1.96
 255  0.753  0.374  0.756-  49 1.93  63 2.04
 256  0.755  0.875  0.241-  64 1.94  46 1.94
 257  0.749  0.876  0.742-  65 1.94  47 2.03
 

IMPORTANT INFORMATION: All symmetrisations will be switched off!
NOSYMM: (Re-)initialisation of all symmetry stuff for point group C_1.

 
 
 KPOINTS: Title                                   

Automatic generation of k-mesh.
Space group operators:
 irot       det(A)        alpha          n_x          n_y          n_z        tau_x        tau_y        tau_z
    1     1.000000     0.000001     1.000000     0.000000     0.000000     0.000000     0.000000     0.000000
 
 Subroutine IBZKPT returns following result:
 ===========================================
 
 Found      4 irreducible k-points:
 
 Following reciprocal coordinates:
            Coordinates               Weight
  0.250000  0.250000  0.250000      2.000000
 -0.250000  0.250000  0.250000      2.000000
  0.250000 -0.250000  0.250000      2.000000
 -0.250000 -0.250000  0.250000      2.000000
 
 Following cartesian coordinates:
            Coordinates               Weight
  0.016206  0.016206  0.016206      2.000000
 -0.016206  0.016206  0.016206      2.000000
  0.016206 -0.016206  0.016206      2.000000
 -0.016206 -0.016206  0.016206      2.000000
 


--------------------------------------------------------------------------------------------------------




 Dimension of arrays:
   k-points           NKPTS =      4   k-points in BZ     NKDIM =      4   number of bands    NBANDS=   1164
   number of dos      NEDOS =   3001   number of ions     NIONS =    257
   non local maximal  LDIM  =      6   non local SUM 2l+1 LMDIM =     18
   total plane-waves  NPLWV = ******
   max r-space proj   IRMAX =   7595   max aug-charges    IRDMAX= 146383
   dimension x,y,z NGX =   120 NGY =  120 NGZ =  120
   dimension x,y,z NGXF=   240 NGYF=  240 NGZF=  240
   support grid    NGXF=   480 NGYF=  480 NGZF=  480
   ions per type =               1  64  64 128
   NGX,Y,Z   is equivalent  to a cutoff of  12.93, 12.93, 12.93 a.u.
   NGXF,Y,Z  is equivalent  to a cutoff of  25.86, 25.86, 25.86 a.u.

 SYSTEM =  LTO                                     
 POSCAR =  config 63                               

 Startparameter for this run:
   NWRITE =      2    write-flag & timer
   PREC   = accura    normal or accurate (medium, high low for compatibility)
   ISTART =      1    job   : 0-new  1-cont  2-samecut
   ICHARG =      0    charge: 1-file 2-atom 10-const
   ISPIN  =      2    spin polarized calculation?
   LNONCOLLINEAR =      F non collinear calculations
   LSORBIT =      F    spin-orbit coupling
   INIWAV =      1    electr: 0-lowe 1-rand  2-diag
   LASPH  =      T    aspherical Exc in radial PAW
   METAGGA=      F    non-selfconsistent MetaGGA calc.

 Electronic Relaxation 1
   ENCUT  =  500.0 eV  36.75 Ry    6.06 a.u.  28.13 28.13 28.13*2*pi/ulx,y,z
   ENINI  =  500.0     initial cutoff
   ENAUG  =  628.9 eV  augmentation charge cutoff
   NELM   =     60;   NELMIN=  2; NELMDL=  0     # of ELM steps 
   EDIFF  = 0.1E-05   stopping-criterion for ELM
   LREAL  =      T    real-space projection
   NLSPLINE    = F    spline interpolate recip. space projectors
   LCOMPAT=      F    compatible to vasp.4.4
   GGA_COMPAT  = T    GGA compatible to vasp.4.4-vasp.4.6
   LMAXPAW     = -100 max onsite density
   LMAXMIX     =    4 max onsite mixed and CHGCAR
   VOSKOWN=      0    Vosko Wilk Nusair interpolation
   ROPT   =   -0.00010  -0.00010  -0.00010  -0.00010
 Ionic relaxation
   EDIFFG = -.5E-01   stopping-criterion for IOM
   NSW    =    100    number of steps for IOM
   NBLOCK =      1;   KBLOCK =    100    inner block; outer block 
   IBRION =      1    ionic relax: 0-MD 1-quasi-New 2-CG
   NFREE  =      0    steps in history (QN), initial steepest desc. (CG)
   ISIF   =      2    stress and relaxation
   IWAVPR =     11    prediction:  0-non 1-charg 2-wave 3-comb
   ISYM   =      0    0-nonsym 1-usesym 2-fastsym
   LCORR  =      T    Harris-Foulkes like correction to forces

   POTIM  = 0.5000    time-step for ionic-motion
   TEIN   =    0.0    initial temperature
   TEBEG  =    0.0;   TEEND  =   0.0 temperature during run
   SMASS  =  -3.00    Nose mass-parameter (am)
   estimated Nose-frequenzy (Omega)   =  0.10E-29 period in steps =****** mass=  -0.544E-26a.u.
   SCALEE = 1.0000    scale energy and forces
   NPACO  =    256;   APACO  = 16.0  distance and # of slots for P.C.
   PSTRESS=    0.0 pullay stress

  Mass of Ions in am
   POMASS =   7.01 47.88 16.00 19.00
  Ionic Valenz
   ZVAL   =   3.00 10.00  6.00  7.00
  Atomic Wigner-Seitz radii
   RWIGS  =  -1.00 -1.00 -1.00 -1.00
  virtual crystal weights 
   VCA    =   1.00  1.00  1.00  1.00
   NELECT =    1923.0000    total number of electrons
   NUPDOWN=       1.0000    fix difference up-down

 DOS related values:
   EMIN   =  10.00;   EMAX   =-10.00  energy-range for DOS
   EFERMI =   0.00
   ISMEAR =     0;   SIGMA  =   0.01  broadening in eV -4-tet -1-fermi 0-gaus

 Electronic relaxation 2 (details)
   IALGO  =     38    algorithm
   LDIAG  =      T    sub-space diagonalisation (order eigenvalues)
   LSUBROT=      F    optimize rotation matrix (better conditioning)
   TURBO    =      0    0=normal 1=particle mesh
   IRESTART =      0    0=no restart 2=restart with 2 vectors
   NREBOOT  =      0    no. of reboots
   NMIN     =      0    reboot dimension
   EREF     =   0.00    reference energy to select bands
   IMIX   =      4    mixing-type and parameters
     AMIX     =   0.40;   BMIX     =  1.00
     AMIX_MAG =   1.60;   BMIX_MAG =  1.00
     AMIN     =   0.10
     WC   =   100.;   INIMIX=   1;  MIXPRE=   1;  MAXMIX= -45

 Intra band minimization:
   WEIMIN = 0.0010     energy-eigenvalue tresh-hold
   EBREAK =  0.21E-09  absolut break condition
   DEPER  =   0.30     relativ break condition  

   TIME   =   0.40     timestep for ELM

  volume/ion in A,a.u.               =      14.28        96.39
  Fermi-wavevector in a.u.,A,eV,Ry     =   1.319690  2.493853 23.695660  1.741582
  Thomas-Fermi vector in A             =   2.449570
 
 Write flags
   LWAVE        =      T    write WAVECAR
   LDOWNSAMPLE  =      F    k-point downsampling of WAVECAR
   LCHARG       =      T    write CHGCAR
   LVTOT        =      F    write LOCPOT, total local potential
   LVHAR        =      F    write LOCPOT, Hartree potential only
   LELF         =      F    write electronic localiz. function (ELF)
   LORBIT       =     11    0 simple, 1 ext, 2 COOP (PROOUT), +10 PAW based schemes


 Dipole corrections
   LMONO  =      F    monopole corrections only (constant potential shift)
   LDIPOL =      F    correct potential (dipole corrections)
   IDIPOL =      0    1-x, 2-y, 3-z, 4-all directions 
   EPSILON=  1.0000000 bulk dielectric constant

 LDA+U is selected, type is set to LDAUTYPE =  2
   angular momentum for each species LDAUL =    -1    2   -1   -1
   U (eV)           for each species LDAUU =   0.0  4.2  0.0  0.0
   J (eV)           for each species LDAUJ =   0.0  0.0  0.0  0.0
 Exchange correlation treatment:
   GGA     =    PS    GGA type
   LEXCH   =    14    internal setting for exchange type
   VOSKOWN=      0    Vosko Wilk Nusair interpolation
   LHFCALC =     F    Hartree Fock is set to
   LHFONE  =     F    Hartree Fock one center treatment
   AEXX    =    0.0000 exact exchange contribution

 Linear response parameters
   LEPSILON=     F    determine dielectric tensor
   LRPA    =     F    only Hartree local field effects (RPA)
   LNABLA  =     F    use nabla operator in PAW spheres
   LVEL    =     F    velocity operator in full k-point grid
   LINTERFAST=   F  fast interpolation
   KINTER  =     0    interpolate to denser k-point grid
   CSHIFT  =0.1000    complex shift for real part using Kramers Kronig
   OMEGAMAX=  -1.0    maximum frequency
   DEG_THRESHOLD= 0.2000000E-02 threshold for treating states as degnerate
   RTIME   =   -0.100 relaxation time in fs
  (WPLASMAI=    0.000 imaginary part of plasma frequency in eV, 0.658/RTIME)
   DFIELD  = 0.0000000 0.0000000 0.0000000 field for delta impulse in time
 
 Orbital magnetization related:
   ORBITALMAG=     F  switch on orbital magnetization
   LCHIMAG   =     F  perturbation theory with respect to B field
   DQ        =  0.001000  dq finite difference perturbation B field
   LLRAUG    =     F  two centre corrections for induced B field



--------------------------------------------------------------------------------------------------------


 quasi-Newton-method for relaxation of ions
 charge density and potential will be updated during run
 spin polarized calculation
 Variant of blocked Davidson
 Davidson routine will perform the subspace rotation
 perform sub-space diagonalisation
    after iterative eigenvector-optimisation
 modified Broyden-mixing scheme, WC =      100.0
 initial mixing is a Kerker type mixing with AMIX =  0.4000 and BMIX =      1.0000
 Hartree-type preconditioning will be used
 using additional bands          202
 real space projection scheme for non local part
 use partial core corrections
 calculate Harris-corrections to forces 
   (improved forces if not selfconsistent)
 use gradient corrections 
 use of overlap-Matrix (Vanderbilt PP)
 Gauss-broadening in eV      SIGMA  =   0.01


--------------------------------------------------------------------------------------------------------


  energy-cutoff  :      500.00
  volume of cell :     3671.03
      direct lattice vectors                 reciprocal lattice vectors
    15.426331000  0.000000000  0.000000000     0.064824228  0.000000000  0.000000000
     0.000000000 15.426331000  0.000000000     0.000000000  0.064824228  0.000000000
     0.000000000  0.000000000 15.426331000     0.000000000  0.000000000  0.064824228

  length of vectors
    15.426331000 15.426331000 15.426331000     0.064824228  0.064824228  0.064824228


 
 old parameters found on file WAVECAR:
  energy-cutoff  :      500.00
  volume of cell :     3671.03
      direct lattice vectors                 reciprocal lattice vectors
    15.426331000  0.000000000  0.000000000     0.064824228  0.000000000  0.000000000
     0.000000000 15.426331000  0.000000000     0.000000000  0.064824228  0.000000000
     0.000000000  0.000000000 15.426331000     0.000000000  0.000000000  0.064824228

  length of vectors

 
 k-points in units of 2pi/SCALE and weight: Title                                   
   0.01620606  0.01620606  0.01620606       0.250
  -0.01620606  0.01620606  0.01620606       0.250
   0.01620606 -0.01620606  0.01620606       0.250
  -0.01620606 -0.01620606  0.01620606       0.250
 
 k-points in reciprocal lattice and weights: Title                                   
   0.25000000  0.25000000  0.25000000       0.250
  -0.25000000  0.25000000  0.25000000       0.250
   0.25000000 -0.25000000  0.25000000       0.250
  -0.25000000 -0.25000000  0.25000000       0.250
 
 position of ions in fractional coordinates (direct lattice) 
   0.90890910  0.85306735  0.60591498
   0.99475290  0.99573366  0.99551351
   0.99842300  0.99155917  0.49277951
   0.00560323  0.49552104  0.99766410
   0.99422268  0.49929834  0.50695704
   0.49380570  0.99464285  0.99950948
   0.50022538  0.00779301  0.50036129
   0.50410689  0.49572836  0.99590219
   0.49225881  0.49919485  0.49517105
   0.00639921  0.00271151  0.25598744
   0.00067187  0.00891441  0.75806281
   0.99375879  0.49372582  0.25137720
   0.99234390  0.49832722  0.74205114
   0.50603220  0.00823468  0.25045205
   0.49197793  0.00497424  0.75160551
   0.49313630  0.49712647  0.25737328
   0.50072821  0.50449844  0.75818290
   0.99535814  0.25745940  0.00108171
   0.99874573  0.24685374  0.49114202
   0.99788282  0.75813633  0.00464450
   0.00020964  0.75140760  0.49925905
   0.49477038  0.25804936  0.00055628
   0.50790637  0.24528275  0.49973496
   0.50706684  0.75671350  0.99933163
   0.50706461  0.75306740  0.50944252
   0.99980816  0.25799513  0.25491669
   0.00614396  0.24281470  0.74706627
   0.00723783  0.74851667  0.24049158
   0.99366586  0.75004243  0.74286396
   0.50833729  0.24229816  0.25124755
   0.50644465  0.24270579  0.74972188
   0.50716501  0.75157537  0.25227178
   0.50130113  0.74236664  0.74380617
   0.25601195  0.99877145  0.00628215
   0.24929579  0.99340226  0.50664448
   0.24347145  0.50772446  0.99783262
   0.25445536  0.49394256  0.50660491
   0.75694992  0.00048260  0.99471350
   0.74939281  0.00777565  0.49395269
   0.74190389  0.50080737  0.00500129
   0.75581928  0.49794471  0.50520234
   0.24442147  0.00227662  0.24399342
   0.25681714  0.99795880  0.74431677
   0.25539443  0.49226049  0.25193954
   0.24707496  0.50626156  0.74128364
   0.74463761  0.00009729  0.25572515
   0.74762113  0.00694379  0.75678583
   0.75602588  0.49938288  0.24280379
   0.75702510  0.49841540  0.74266289
   0.25727540  0.25126891  0.00583347
   0.25272302  0.25626858  0.50557392
   0.25178180  0.74259511  0.99367080
   0.25338605  0.75510122  0.49294584
   0.75727621  0.25071503  0.00670437
   0.74263343  0.24336641  0.49780094
   0.74155327  0.74996055  0.99498449
   0.74152179  0.75238337  0.49385118
   0.25151553  0.25753673  0.24377150
   0.24395842  0.25137397  0.74373849
   0.24431059  0.74814133  0.25584229
   0.24842517  0.74199002  0.75675837
   0.74266893  0.25087008  0.24209120
   0.74406852  0.24244584  0.75055387
   0.74606463  0.75052273  0.25684466
   0.75642337  0.75138297  0.75813386
   0.00609608  0.49913162  0.62479094
   0.99381299  0.00500480  0.37445109
   0.99721690  0.00346137  0.87369663
   0.50121714  0.49521877  0.37524027
   0.49530964  0.49900234  0.87459429
   0.99842280  0.74460018  0.12392800
   0.99545053  0.75361103  0.62643737
   0.50110976  0.75594748  0.62520638
   0.99579695  0.24588800  0.37623319
   0.25414670  0.00341690  0.12538848
   0.25198027  0.00387277  0.62571180
   0.24058520  0.49564126  0.62592304
   0.75183619  0.49382658  0.12562806
   0.74717734  0.49593524  0.62419745
   0.75206238  0.99701196  0.37612651
   0.74777253  0.99687995  0.87387694
   0.24746870  0.24932709  0.12573153
   0.25378514  0.24883954  0.62536359
   0.74436392  0.25640423  0.12603130
   0.25552069  0.74677618  0.37430538
   0.25047162  0.75300185  0.87525685
   0.75400591  0.75452863  0.37458237
   0.74702082  0.75456914  0.87648070
   0.12428290  0.50297825  0.99619938
   0.62573146  0.50708127  0.99939020
   0.12550515  0.00258357  0.25236931
   0.62500071  0.99986782  0.25129420
   0.62408317  0.25519007  0.49722575
   0.62444649  0.74270220  0.00468145
   0.62446010  0.76197053  0.49601495
   0.12434683  0.24983513  0.74799554
   0.12566972  0.75192646  0.25090270
   0.62570504  0.24639893  0.26002737
   0.62534044  0.25125459  0.74507599
   0.62352231  0.75454413  0.25129335
   0.37576515  0.00088649  0.99318580
   0.37560330  0.50284565  0.50284053
   0.87261190  0.00300880  0.00234191
   0.87522335  0.49677367  0.49782164
   0.37552324  0.99550756  0.75523539
   0.37414907  0.49691787  0.25008120
   0.87574524  0.49882182  0.25368433
   0.87495447  0.50615869  0.74821393
   0.37574938  0.24735009  0.00160183
   0.87415757  0.24731821  0.00334810
   0.87356996  0.75081406  0.74917457
   0.50846201  0.12236359  0.49849401
   0.99346636  0.12652992  0.74341484
   0.49609683  0.12506022  0.26002791
   0.49976161  0.12360802  0.74461550
   0.50013944  0.62550064  0.74797352
   0.99926137  0.37524667  0.00385434
   0.00085543  0.87521436  0.00099186
   0.98717131  0.87858033  0.50404954
   0.50200007  0.37424798  0.00522170
   0.50360658  0.87552327  0.00187655
   0.00588926  0.37373639  0.24664722
   0.25458041  0.62518736  0.00161640
   0.74242815  0.12576557  0.50218654
   0.24897934  0.62474088  0.75049509
   0.75318060  0.12492942  0.74602395
   0.25005226  0.37258327  0.49407048
   0.25415560  0.87583993  0.50013388
   0.24274119  0.37444935  0.25622850
   0.00079495  0.00325707  0.12627628
   0.00069279  0.99570966  0.62553894
   0.99877958  0.50900039  0.12508110
   0.49551163  0.00452187  0.12646603
   0.49892913  0.99131007  0.62324664
   0.50138134  0.50600527  0.12735001
   0.50633134  0.49850123  0.62475477
   0.00524334  0.49388755  0.37575040
   0.99675326  0.49860583  0.87280921
   0.50165100  0.99230022  0.37712625
   0.51316346  0.00322718  0.87487019
   0.00612589  0.24553920  0.12699739
   0.99756035  0.25895605  0.62137162
   0.50636344  0.24141737  0.12670273
   0.49259671  0.25046845  0.62307930
   0.49596726  0.74818382  0.12725902
   0.99701523  0.24999585  0.87411694
   0.99217128  0.75318300  0.37140400
   0.00232606  0.75026888  0.87406575
   0.49338963  0.26005360  0.37609366
   0.50274086  0.24863770  0.87438820
   0.49375825  0.75211875  0.37579573
   0.49914017  0.75024836  0.87438467
   0.24617404  0.49455725  0.12485769
   0.74740215  0.00567660  0.12670091
   0.74476767  0.99716743  0.62336630
   0.25302577  0.00104628  0.37579657
   0.24377563  0.99468197  0.87452678
   0.24605311  0.51062793  0.37526532
   0.25751670  0.49719025  0.87373915
   0.74528448  0.50559120  0.37484662
   0.75092470  0.50437210  0.87403294
   0.25298141  0.75423779  0.12495284
   0.25275903  0.75087115  0.62561299
   0.75353132  0.25952134  0.62292270
   0.75279765  0.74676909  0.12636252
   0.74554721  0.74968716  0.62559387
   0.25141020  0.24345166  0.37459154
   0.25020762  0.25132383  0.87528051
   0.76061965  0.24575100  0.37418646
   0.74989795  0.24696391  0.87567383
   0.12573223  0.00142114  0.00113255
   0.12417349  0.00315195  0.49791591
   0.12395525  0.50048990  0.49395724
   0.62504740  0.00120811  0.00618369
   0.62341203  0.98441127  0.50067124
   0.62546486  0.49565424  0.49892554
   0.12582923  0.00230442  0.74893283
   0.12410386  0.50688584  0.24778893
   0.12295419  0.49494511  0.76119499
   0.62327822  0.99661180  0.74306745
   0.62541165  0.49868573  0.24903610
   0.62632403  0.49458965  0.75403423
   0.12496877  0.25072782  0.99592587
   0.12356761  0.24255893  0.50007805
   0.12508200  0.74617331  0.00122039
   0.12947508  0.74964627  0.49868395
   0.62602226  0.24967520  0.99608864
   0.12468722  0.23762717  0.25524354
   0.12349194  0.75306112  0.74929577
   0.62566096  0.75347375  0.75116378
   0.37706933  0.00685633  0.49797484
   0.37338108  0.49638648  0.00636592
   0.87275966  0.00940889  0.51232170
   0.87450428  0.49858078  0.99779516
   0.37739046  0.99645617  0.25554808
   0.37446373  0.49687213  0.74246755
   0.87338385  0.99947527  0.24497018
   0.87344650  0.99024457  0.73941723
   0.37856595  0.24342957  0.49627847
   0.37654672  0.75606479  0.00123210
   0.37866341  0.74311746  0.50164871
   0.87404209  0.25247661  0.50336629
   0.87208035  0.75389603  0.99817373
   0.86853776  0.75070704  0.51258548
   0.37823519  0.25659284  0.24879450
   0.37604853  0.25066541  0.75422070
   0.37765017  0.74810810  0.24748879
   0.37520964  0.75661558  0.75084034
   0.87418644  0.25413822  0.24567702
   0.87387442  0.25588878  0.74840920
   0.87369271  0.74670637  0.24762817
   0.00437548  0.12712803  0.00136605
   0.99618383  0.12552941  0.51069068
   0.99410285  0.62533142  0.99360926
   0.00088421  0.62104283  0.49190706
   0.50503991  0.12461109  0.99960152
   0.49027291  0.62746137  0.00104736
   0.50787360  0.62661993  0.49933675
   0.99234950  0.12759980  0.24580701
   0.99974819  0.62354317  0.25788221
   0.00819813  0.62434287  0.75333059
   0.50227318  0.62614528  0.25370874
   0.00620980  0.37193551  0.49751223
   0.49520273  0.37199301  0.50523181
   0.48815636  0.87788923  0.49610546
   0.99669530  0.37410806  0.75247443
   0.99513536  0.87582261  0.24774748
   0.99854233  0.87685526  0.74773119
   0.50345880  0.37188890  0.24207684
   0.49752465  0.37314919  0.74666513
   0.49606750  0.87607995  0.24838882
   0.50340092  0.87547744  0.75567344
   0.24518377  0.12487318  0.99329657
   0.25046004  0.12402097  0.49666788
   0.24887147  0.62578122  0.50455910
   0.74256792  0.12608478  0.00035867
   0.76052296  0.62577787  0.00171374
   0.74601295  0.62603989  0.50043053
   0.25976238  0.12637339  0.25387643
   0.25235981  0.12453698  0.75824993
   0.25125489  0.62367426  0.24151142
   0.75752094  0.12588528  0.25083295
   0.74614527  0.62542494  0.24940621
   0.74130850  0.62545896  0.74907391
   0.24945387  0.37603548  0.99799165
   0.24595993  0.87403756  0.00334644
   0.74846092  0.37506191  0.98961114
   0.75104588  0.37267374  0.49057556
   0.74606592  0.87514642  0.01071548
   0.76243638  0.87754488  0.50844492
   0.25214082  0.37582016  0.75584627
   0.25509984  0.87559366  0.25102178
   0.24470263  0.87371671  0.74624306
   0.74899791  0.37435849  0.26259192
   0.75272576  0.37401029  0.75620094
   0.75504390  0.87528236  0.24135579
   0.74878530  0.87590179  0.74182067
 
 position of ions in cartesian coordinates  (Angst):
  14.02113263 13.15969931  9.34704507
  15.34538750 15.36051706 15.35712093
  15.40200367 15.29611989  7.60177983
   0.08643724  7.64407155 15.39029657
  15.33720814  7.70234148  7.82048710
   7.61761019 15.34368979 15.41876404
   7.71664227  0.12021757  7.71873888
   7.77651982  7.64726969 15.36311688
   7.59374728  7.70074498  7.63867250
   0.09871627  0.04182865  3.94894696
   0.01036443  0.13751659 11.69412789
  15.33005200  7.61637797  3.87782791
  15.30822550  7.68736072 11.44712651
   7.80622015  0.12703090  3.86355625
   7.58941436  0.07673430 11.59451543
   7.60728379  7.66883742  3.97032548
   7.72439915  7.78255994 11.69598042
  15.35472418  3.97165389  0.01668675
  15.40698216  3.80804747  7.57651938
  15.39367064 11.69526191  0.07164762
   0.00323397 11.59146241  7.70173531
   7.63249168  3.98075478  0.00858140
   7.83513173  3.78381284  7.70907691
   7.82218093 11.67331297 15.41602050
   7.82214658 11.61706690  7.85882901
  15.42337159  3.97991826  3.93242926
   0.09477876  3.74573999 11.52449155
   0.11165321 11.54686585  3.70990268
  15.32861840 11.57040278 11.45966530
   7.84177930  3.73777164  3.87582785
   7.81258285  3.74405990 11.56545795
   7.82369539 11.59405038  3.89162793
   7.73323720 11.45199356 11.47420015
   3.94932509 15.40737892  0.09691054
   3.84571940 15.32455209  7.81566549
   3.75587122  7.83232551 15.39289631
   3.92531266  7.61972136  7.81505506
  11.67695998  0.00744470 15.34477973
  11.56038153  0.11994981  7.61987767
  11.44485496  7.72562030  0.07715156
  11.65951846  7.68145995  7.79341850
   3.77052642  0.03511985  3.76392333
   3.96174619 15.39484270 11.48207682
   3.93979899  7.59377327  3.88650279
   3.81146008  7.80975847 11.43528679
  11.48702632  0.00150077  3.94490082
  11.53305105  0.10711719 11.67442873
  11.66270550  7.70364559  3.74557167
  11.67811978  7.68872095 11.45656351
   3.96881550  3.87615736  0.08998899
   3.89858893  3.95328395  7.79915067
   3.88406937 11.45551789 15.32869470
   3.90881709 11.64844136  7.60434577
  11.68199350  3.86761306  0.10342389
  11.45610911  3.75425079  7.67924209
  11.43944622 11.56913966 15.34896012
  11.43896053 11.60651498  7.61831180
   3.87996176  3.97284685  3.76049988
   3.76338334  3.87777806 11.47315618
   3.76881599 11.54107584  3.94670781
   3.83228892 11.44618368 11.67400510
  11.45665675  3.87000491  3.73457895
  11.47824726  3.74004983 11.57829240
  11.50903992 11.57781208  3.96217079
  11.66883723 11.59108233 11.69522385
   0.09404019  7.69976960  9.63823191
  15.33088814  0.07720567  5.77640651
  15.38339798  0.05339625 13.47793338
   7.73194149  7.63940869  5.78858058
   7.64081051  7.69777528 13.49178102
  15.40200061 11.48644885  1.91175437
  15.35614935 11.62545327  9.66363023
   7.73028496 11.66149608  9.64464060
  15.36149333  3.79314963  5.80389768
   3.92055110  0.05271026  1.93428414
   3.88713102  0.05974261  9.65243739
   3.71134694  7.64592616  9.65569596
  11.59807389  7.61793232  1.93797998
  11.52620489  7.65046119  9.62907651
  11.60156320 15.38023650  5.80225206
  11.53538655 15.37820002 13.48071488
   3.81753408  3.84620223  1.93957615
   3.91497363  3.83868109  9.64706571
  11.48280422  3.95537656  1.94420062
   3.94174670 11.52001648  5.77415863
   3.86385804 11.61605573 13.50200182
  11.63154472 11.63960836  5.77843160
  11.52379036 11.64023328 13.52088146
   1.91722914  7.75910893 15.36770138
   9.65274061  7.82240351 15.41692404
   1.93608394  0.03985495  3.89313254
   9.64146786 15.42429198  3.87654753
   9.62731359  3.93664642  7.67036898
   9.63291827 11.45716995  0.07221752
   9.63312821 11.75440957  7.65169078
   1.91821539  3.85403934 11.53882675
   1.93862268 11.59946651  3.87050803
   9.65233305  3.80103150  4.01126826
   9.64670869  3.87593650 11.49378882
   9.61866157 11.63984754  3.87653433
   5.79667761  0.01367529 15.32121290
   5.79418079  7.75706348  7.75698444
  13.46119999  0.04641474  0.03612713
  13.50148509  7.66339503  7.67956145
   5.79294584 15.35702914 11.65051118
   5.77174732  7.66561957  3.85783541
  13.50953595  7.69499046  3.91341847
  13.49733723  7.80817151 11.54219579
   5.79643434  3.81570440  0.02471041
  13.48504401  3.81521253  0.05164882
  13.47597940 11.58230625 11.55701484
   7.84370325  1.88762131  7.68993358
  15.32554093  1.95189248 11.46816345
   7.65295388  1.92922041  4.01127653
   7.70948805  1.90681827 11.48668516
   7.71531652  9.64917994 11.53848707
  15.41493661  5.78867937  0.05945838
   0.01319616 13.50134637  0.01530071
  15.22843135 13.55327098  7.77563505
   7.74401921  5.77327318  0.08055168
   7.76880181 13.50611175  0.02894835
   0.09084969  5.76538122  3.80486172
   3.92724163  9.64434718  0.02493517
  11.45294240  1.94010126  7.74689584
   3.84083771  9.63745960 11.57738564
  11.61881323  1.92720253 11.50841238
   3.85738900  5.74759292  7.62169474
   3.92068843 13.51099661  7.71523076
   3.74460597  5.77637964  3.95266560
   0.01226317  0.05024469  1.94797975
   0.01068728 15.36014675  9.64977079
  15.40750440  7.85200850  1.92954241
   7.64392644  0.06975581  1.95090686
   7.69664589 15.29227728  9.61440904
   7.73447444  7.80580484  1.96454338
   7.81083484  7.69004493  9.63767380
   0.08088547  7.61887279  5.79645003
  15.37624574  7.69165853 13.46424376
   7.73863441 15.30755158  5.81767431
   7.91622938  0.04978349 13.49603720
   0.09450005  3.78776896  1.95910379
  15.38869608  3.99474181  9.58548426
   7.81133000  3.72418424  1.95455824
   7.59895985  3.86380922  9.61182746
   7.65095510 11.54173126  1.96313969
  15.38028695  3.85651877 13.48441722
  15.30556251 11.61885027  5.72940108
   0.03588254 11.57389612 13.48362756
   7.61119171  4.01167299  5.80174530
   7.75544698  3.83556739 13.48860186
   7.61687813 11.60243284  5.79714933
   7.69990141 11.57357948 13.48854742
   3.79756225  7.62920387  1.92609601
  11.52967293  0.08756910  1.95453018
  11.48903255 15.38263489  9.61625484
   3.90325928  0.01614023  5.79716232
   3.76056357 15.34429338 13.49073951
   3.79569677  7.87711548  5.78896703
   3.97253788  7.66982130 13.47858933
  11.49700508  7.79941725  5.78250810
  11.58401300  7.78061101 13.48312150
   3.90257497 11.63512187  1.92756388
   3.89914443 11.58318686  9.65091306
  11.62422356  4.00346203  9.60941172
  11.61290570 11.51990712  1.94931011
  11.50105801 11.56492228  9.65061808
   3.87833692  3.75556590  5.77857307
   3.85978559  3.87700462 13.50236682
  11.73357047  3.79103619  5.77232423
  11.56817397  3.80974705 13.50843436
   1.93958696  0.02192304  0.01747114
   1.91554129  0.04862302  7.68101561
   1.91217475  7.72072288  7.61994784
   9.64218812  0.01863665  0.09539170
   9.61696036 15.18585402  7.72352031
   9.64862792  7.64612640  7.69659056
   1.94108341  0.03554874 11.55328567
   1.91446719  7.81938868  3.82247404
   1.89673196  7.63518711 11.74244593
   9.61489620 15.37406357 11.46280447
   9.64780718  7.69289118  3.84171333
   9.66188182  7.62970365 11.63198160
   1.92780964  3.86781028 15.36348207
   1.90619491  3.74179440  7.71436960
   1.92955632 11.51071649  0.01882621
   1.99732539 11.56429153  7.69286373
   9.65722660  3.85157225 15.36599301
   1.92346639  3.66571539  3.93747127
   1.90502751 11.61697005 11.55888451
   9.65165300 11.62333542 11.58770116
   5.81679622  0.10576804  7.68192471
   5.75990010  7.65742211  0.09820285
  13.46347942  0.14514459  7.90324418
  13.49039255  7.69127217 15.39231835
   5.82175012 15.37166273  3.94216933
   5.77660151  7.66491396 11.45355026
  13.47310832 15.41823629  3.77899103
  13.47407478 15.27584048 11.40649501
   5.83988360  3.75522512  7.65575592
   5.80873428 11.66330572  0.01900672
   5.84138716 11.46357585  7.73859905
  13.48326252  3.89478771  7.76509508
  13.45300010 11.62984972 15.39815834
  13.39835090 11.58065533  7.90731332
   5.83478120  3.95828606  3.83798625
   5.80104904  3.86684759 11.63485820
   5.82575652 11.54056319  3.81784398
   5.78810817 11.67180231 11.58271158
  13.48548937  3.92042023  3.78989502
  13.48067608  3.94742497 11.54520802
  13.47787298 11.51893965  3.81999409
   0.06749764  1.96111906  0.02107307
  15.36746152  1.93645820  7.87808339
  15.33535961  9.64656945 15.32774537
   0.01364014  9.58041234  7.58832116
   7.79091281  1.92229197 15.42018396
   7.56311219  9.67942672  0.01615693
   7.83462622  9.66644646  7.70293395
  15.30831186  1.96839672  3.79190025
  15.42244643  9.61898338  3.97817634
   0.12646709  9.63131970 11.62112697
   7.74823237  9.65912428  3.91379502
   0.09579438  5.73760024  7.67478841
   7.63916117  5.73848738  7.79387310
   7.53046165 13.54260990  7.65308700
  15.37535156  5.77111478 11.60791956
  15.35128738 13.51072941  3.82183468
  15.40384447 13.52665941 11.53474884
   7.76652202  5.73688127  3.73435751
   7.67497998  5.75632296 11.51830347
   7.65250149 13.51469923  3.83172822
   7.76562917 13.50540471 11.65726854
   3.78228605  1.92633504 15.32292167
   3.86367942  1.91318859  7.66176319
   3.83917369  9.65350817  7.78349562
  11.45509855  1.94502551  0.00553295
  11.73207898  9.65345649  0.02643672
  11.50824267  9.65749851  7.71980703
   4.00718039  1.94947775  3.91638179
   3.89298601  1.92114866 11.69701447
   3.87594117  9.62100551  3.72563514
  11.68576880  1.94194801  3.86943212
  11.51028387  9.64801220  3.84742269
  11.43567024  9.64853698 11.55546209
   3.84815796  5.80084771 15.39534952
   3.79425931 13.48319270  0.05162333
  11.54600587  5.78582924 15.26606903
  11.58588242  5.74898842  7.56778094
  11.50905976 13.50029832  0.16530057
  11.76159599 13.53729772  7.84343964
   3.88960768  5.79752623 11.65993473
   3.93525449 13.50719770  3.87234504
   3.77486371 13.47824321 11.51179246
  11.55428968  5.77497804  4.05082986
  11.61179668  5.76960648 11.66540607
  11.64755718 13.50239543  3.72323431
  11.55100982 13.51195086 11.44357120
 


--------------------------------------------------------------------------------------------------------


 k-point  1 :   0.2500 0.2500 0.2500  plane waves:   93161
 k-point  2 :  -0.2500 0.2500 0.2500  plane waves:   93161
 k-point  3 :   0.2500-0.2500 0.2500  plane waves:   93161
 k-point  4 :  -0.2500-0.2500 0.2500  plane waves:   93161

 maximum and minimum number of plane-waves per node :     11686    11606

 maximum number of plane-waves:     93161
 maximum index in each direction: 
   IXMAX=   28   IYMAX=   28   IZMAX=   27
   IXMIN=  -28   IYMIN=  -28   IZMIN=  -28


 real space projection operators:
  total allocation   :     105568.66 KBytes
  max/ min on nodes  :      13240.22      13167.98


 parallel 3D FFT for wavefunctions:
    minimum data exchange during FFTs selected (reduces bandwidth)
 parallel 3D FFT for charge:
    minimum data exchange during FFTs selected (reduces bandwidth)


 total amount of memory used by VASP MPI-rank0   291695. kBytes
=======================================================================

   base      :      30000. kBytes
   nonlr-proj:      49660. kBytes
   fftplans  :      27976. kBytes
   grid      :      34041. kBytes
   one-center:       1026. kBytes
   wavefun   :     148992. kBytes
 
     INWAV:  cpu time   57.7529: real time   58.4500
 Broyden mixing: mesh for mixing (old mesh)
   NGX = 57   NGY = 57   NGZ = 57
  (NGX  =240   NGY  =240   NGZ  =240)
  gives a total of 185193 points

 charge density for first step will be calculated from the start-wavefunctions


--------------------------------------------------------------------------------------------------------


 Maximum index for non-local projection operator          968
 Maximum index for augmentation-charges         3292 (set IRDMAX)


--------------------------------------------------------------------------------------------------------


 initial charge from wavefunction
 First call to EWALD:  gamma=   0.115
 Maximum number of real-space cells 3x 3x 3
 Maximum number of reciprocal cells 3x 3x 3

    FEWALD:  cpu time    0.0481: real time    0.0550


--------------------------------------- Iteration      1(   1)  ---------------------------------------


    POTLOK:  cpu time    0.3259: real time    0.3562
    SETDIJ:  cpu time    1.3305: real time    1.4226
     EDDAV:  cpu time   83.2596: real time   83.6698
       DOS:  cpu time    0.0022: real time    0.0022
    CHARGE:  cpu time    5.2260: real time    5.2287
    MIXING:  cpu time    0.0071: real time    0.0072
    --------------------------------------------
      LOOP:  cpu time   90.1515: real time   90.6869

 eigenvalue-minimisations  : 12204
 total energy-change (2. order) :-0.1757464E+04  (-0.8574891E-07)
 number of electron    1923.0000026 magnetization       1.0000000
 augmentation part      497.0747323 magnetization       0.5825416

 Broyden mixing:
  rms(total) = 0.27740E-03    rms(broyden)= 0.22978E-03
  rms(prec ) = 0.24371E-03
  weight for this iteration     100.00
  WARNING: grid for Broyden might be to small

 Free energy of the ion-electron system (eV)
  ---------------------------------------------------
  alpha Z        PSCENC =      6118.73324990
  Ewald energy   TEWEN  =   -103063.47164273
  -Hartree energ DENC   =    -65556.61964031
  -exchange      EXHF   =         0.00000000
  -V(xc)+E(xc)   XCENC  =      8972.58285610
  PAW double counting   =    198726.51843149  -199733.76330832
  entropy T*S    EENTRO =        -0.00000000
  eigenvalues    EBANDS =    -25798.69604790
  atomic energy  EATOM  =    178577.25249613
  Solvation  Ediel_sol  =         0.00000000
  ---------------------------------------------------
  free energy    TOTEN  =     -1757.46360563 eV

  energy without entropy =    -1757.46360563  energy(sigma->0) =    -1757.46360563


--------------------------------------------------------------------------------------------------------




--------------------------------------- Iteration      1(   2)  ---------------------------------------


    POTLOK:  cpu time    0.2595: real time    0.2621
    SETDIJ:  cpu time    1.3848: real time    1.3852
     EDDAV:  cpu time   84.9062: real time   85.2585
       DOS:  cpu time    0.0019: real time    0.0019
    --------------------------------------------
      LOOP:  cpu time   86.5523: real time   86.9077

 eigenvalue-minimisations  : 12696
 total energy-change (2. order) :-0.1565495E-06  (-0.1104292E-06)
 number of electron    1923.0000026 magnetization       1.0000000
 augmentation part      497.0747323 magnetization       0.5825416

 Free energy of the ion-electron system (eV)
  ---------------------------------------------------
  alpha Z        PSCENC =      6118.73324990
  Ewald energy   TEWEN  =   -103063.47164273
  -Hartree energ DENC   =    -65556.61970998
  -exchange      EXHF   =         0.00000000
  -V(xc)+E(xc)   XCENC  =      8972.58282625
  PAW double counting   =    198726.49240208  -199733.73723789
  entropy T*S    EENTRO =        -0.00000000
  eigenvalues    EBANDS =    -25798.69598955
  atomic energy  EATOM  =    178577.25249613
  Solvation  Ediel_sol  =         0.00000000
  ---------------------------------------------------
  free energy    TOTEN  =     -1757.46360579 eV

  energy without entropy =    -1757.46360579  energy(sigma->0) =    -1757.46360579


--------------------------------------------------------------------------------------------------------




 average (electrostatic) potential at core
  the test charge radii are     0.7079  1.0397  0.7215  0.7167
  (the norm of the test charge is              1.0000)
       1 -63.4093       2 -58.4167       3 -58.3557       4 -58.7410       5 -58.7856
       6 -58.7709       7 -59.7684       8 -58.4343       9 -58.6544      10 -58.7568
      11 -58.5464      12 -58.9023      13 -58.8015      14 -59.0776      15 -58.8738
      16 -58.7192      17 -58.6610      18 -58.8056      19 -59.4798      20 -58.5602
      21 -56.7592      22 -58.5959      23 -59.4193      24 -58.7983      25 -58.8373
      26 -59.0813      27 -58.6869      28 -58.6104      29 -58.6914      30 -59.0942
      31 -58.9554      32 -59.4522      33 -58.7586      34 -58.7599      35 -58.7623
      36 -58.6492      37 -58.3890      38 -58.6754      39 -59.0985      40 -58.6634
      41 -58.8679      42 -58.7583      43 -58.8251      44 -58.7097      45 -58.5713
      46 -59.1494      47 -58.7903      48 -58.8070      49 -58.8308      50 -58.7068
      51 -58.6363      52 -58.6340      53 -58.7149      54 -58.8754      55 -59.2198
      56 -58.8189      57 -58.9720      58 -58.7170      59 -58.7315      60 -58.7016
      61 -58.6768      62 -58.9790      63 -58.9057      64 -59.1553      65 -58.8058
      66 -74.1248      67 -73.8851      68 -73.8264      69 -73.8508      70 -73.7952
      71 -73.8623      72 -73.7348      73 -74.2223      74 -74.5521      75 -73.9101
      76 -73.9689      77 -73.8861      78 -73.9572      79 -73.9877      80 -74.2904
      81 -74.0370      82 -73.8960      83 -73.8740      84 -74.3390      85 -73.8706
      86 -73.8477      87 -74.2359      88 -74.0695      89 -73.8421      90 -73.7966
      91 -73.9640      92 -74.2302      93 -74.6262      94 -74.1271      95 -74.2563
      96 -73.9415      97 -73.9192      98 -74.3867      99 -74.0696     100 -74.3469
     101 -73.9152     102 -73.7953     103 -73.8317     104 -73.9539     105 -74.2034
     106 -73.9110     107 -74.0145     108 -74.1143     109 -73.8746     110 -74.0132
     111 -74.1253     112 -74.8470     113 -74.0607     114 -74.4332     115 -74.0785
     116 -73.9608     117 -73.8907     118 -73.7404     119 -73.8168     120 -73.8085
     121 -73.9488     122 -74.2889     123 -73.9738     124 -74.5063     125 -73.9921
     126 -74.1985     127 -73.7959     128 -73.9110     129 -74.0464     130 -78.3569
     131 -78.4037     132 -79.1175     133 -79.6024     134 -79.8752     135 -78.2948
     136 -78.2791     137 -78.9538     138 -78.9106     139 -79.8970     140 -79.5183
     141 -79.1192     142 -79.0716     143 -79.5384     144 -79.7021     145 -79.3764
     146 -79.1533     147 -78.5792     148 -78.4074     149 -79.7589     150 -79.4543
     151 -79.2301     152 -79.0841     153 -78.9811     154 -78.5943     155 -78.5970
     156 -78.3843     157 -78.3531     158 -78.7813     159 -78.7571     160 -78.3894
     161 -78.4038     162 -78.3341     163 -78.2736     164 -79.4052     165 -78.5727
     166 -78.5616     167 -78.3526     168 -78.3154     169 -79.2473     170 -79.1246
     171 -78.3011     172 -79.4721     173 -78.3291     174 -78.2726     175 -79.9023
     176 -78.2995     177 -78.9716     178 -78.3840     179 -78.8775     180 -79.0217
     181 -78.4023     182 -78.8764     183 -78.3670     184 -79.4385     185 -79.0014
     186 -78.9450     187 -78.3679     188 -79.2668     189 -79.0132     190 -79.0170
     191 -79.7977     192 -78.2719     193 -79.5869     194 -78.2094     195 -78.5416
     196 -79.0172     197 -78.5038     198 -79.1702     199 -79.1651     200 -78.9032
     201 -79.0638     202 -79.4271     203 -78.8548     204 -78.8872     205 -79.0624
     206 -78.4335     207 -78.5131     208 -79.1797     209 -79.2036     210 -78.4743
     211 -78.5983     212 -78.2528     213 -79.3061     214 -78.2523     215 -79.0685
     216 -78.3218     217 -78.3368     218 -79.2640     219 -78.9618     220 -78.9566
     221 -79.2725     222 -79.3789     223 -79.5061     224 -79.2273     225 -79.2656
     226 -79.0448     227 -79.0729     228 -79.0132     229 -79.1273     230 -78.4828
     231 -79.3140     232 -78.4637     233 -79.0045     234 -78.3070     235 -78.2963
     236 -79.3650     237 -79.3426     238 -79.3487     239 -78.9047     240 -79.0736
     241 -78.8626     242 -79.6134     243 -79.5560     244 -79.2478     245 -78.8035
     246 -78.8347     247 -79.3686     248 -79.1829     249 -79.3578     250 -79.2709
     251 -78.8645     252 -79.0559     253 -78.8925     254 -79.5630     255 -79.0257
     256 -79.6091     257 -79.0759
 
 
 
 E-fermi :  -0.6600     XC(G=0):  -9.0355     alpha+bet : -7.7421


 spin component 1

 k-point     1 :       0.2500    0.2500    0.2500
  band No.  band energies     occupation 
      1     -44.0765      1.00000
      2     -35.7998      1.00000
      3     -35.7789      1.00000
      4     -35.6002      1.00000
      5     -35.4750      1.00000
      6     -35.4713      1.00000
      7     -35.4653      1.00000
      8     -35.4375      1.00000
      9     -35.4208      1.00000
     10     -35.3151      1.00000
     11     -35.3084      1.00000
     12     -35.2910      1.00000
     13     -35.2239      1.00000
     14     -35.2230      1.00000
     15     -35.2201      1.00000
     16     -35.1599      1.00000
     17     -35.1533      1.00000
     18     -35.1522      1.00000
     19     -35.1423      1.00000
     20     -35.1323      1.00000
     21     -35.1108      1.00000
     22     -35.0872      1.00000
     23     -35.0462      1.00000
     24     -35.0324      1.00000
     25     -35.0291      1.00000
     26     -35.0167      1.00000
     27     -35.0051      1.00000
     28     -34.9979      1.00000
     29     -34.9961      1.00000
     30     -34.9915      1.00000
     31     -34.9896      1.00000
     32     -34.9804      1.00000
     33     -34.9777      1.00000
     34     -34.9624      1.00000
     35     -34.9520      1.00000
     36     -34.9489      1.00000
     37     -34.9318      1.00000
     38     -34.9294      1.00000
     39     -34.9281      1.00000
     40     -34.9096      1.00000
     41     -34.9014      1.00000
     42     -34.9005      1.00000
     43     -34.8863      1.00000
     44     -34.8814      1.00000
     45     -34.8775      1.00000
     46     -34.8771      1.00000
     47     -34.8746      1.00000
     48     -34.8694      1.00000
     49     -34.8661      1.00000
     50     -34.8513      1.00000
     51     -34.8483      1.00000
     52     -34.8388      1.00000
     53     -34.8345      1.00000
     54     -34.8312      1.00000
     55     -34.8255      1.00000
     56     -34.8244      1.00000
     57     -34.8237      1.00000
     58     -34.8234      1.00000
     59     -34.8154      1.00000
     60     -34.8129      1.00000
     61     -34.8046      1.00000
     62     -34.8039      1.00000
     63     -34.7964      1.00000
     64     -34.7900      1.00000
     65     -34.7887      1.00000
     66     -34.7833      1.00000
     67     -34.7826      1.00000
     68     -34.7762      1.00000
     69     -34.7673      1.00000
     70     -34.7653      1.00000
     71     -34.7618      1.00000
     72     -34.7554      1.00000
     73     -34.7477      1.00000
     74     -34.7429      1.00000
     75     -34.7396      1.00000
     76     -34.7394      1.00000
     77     -34.7377      1.00000
     78     -34.7363      1.00000
     79     -34.7303      1.00000
     80     -34.7296      1.00000
     81     -34.7278      1.00000
     82     -34.7253      1.00000
     83     -34.7238      1.00000
     84     -34.7232      1.00000
     85     -34.7190      1.00000
     86     -34.7158      1.00000
     87     -34.7146      1.00000
     88     -34.7144      1.00000
     89     -34.7120      1.00000
     90     -34.7118      1.00000
     91     -34.7104      1.00000
     92     -34.7065      1.00000
     93     -34.7032      1.00000
     94     -34.6995      1.00000
     95     -34.6990      1.00000
     96     -34.6972      1.00000
     97     -34.6917      1.00000
     98     -34.6887      1.00000
     99     -34.6886      1.00000
    100     -34.6825      1.00000
    101     -34.6771      1.00000
    102     -34.6710      1.00000
    103     -34.6688      1.00000
    104     -34.6646      1.00000
    105     -34.6641      1.00000
    106     -34.6637      1.00000
    107     -34.6629      1.00000
    108     -34.6549      1.00000
    109     -34.6540      1.00000
    110     -34.6513      1.00000
    111     -34.6493      1.00000
    112     -34.6490      1.00000
    113     -34.6484      1.00000
    114     -34.6435      1.00000
    115     -34.6414      1.00000
    116     -34.6412      1.00000
    117     -34.6341      1.00000
    118     -34.6329      1.00000
    119     -34.6286      1.00000
    120     -34.6276      1.00000
    121     -34.6270      1.00000
    122     -34.6215      1.00000
    123     -34.6187      1.00000
    124     -34.6177      1.00000
    125     -34.6158      1.00000
    126     -34.6134      1.00000
    127     -34.6067      1.00000
    128     -34.6055      1.00000
    129     -34.6004      1.00000
    130     -34.5993      1.00000
    131     -34.5968      1.00000
    132     -34.5917      1.00000
    133     -34.5909      1.00000
    134     -34.5882      1.00000
    135     -34.5837      1.00000
    136     -34.5827      1.00000
    137     -34.5813      1.00000
    138     -34.5796      1.00000
    139     -34.5783      1.00000
    140     -34.5731      1.00000
    141     -34.5724      1.00000
    142     -34.5690      1.00000
    143     -34.5681      1.00000
    144     -34.5674      1.00000
    145     -34.5656      1.00000
    146     -34.5582      1.00000
    147     -34.5570      1.00000
    148     -34.5564      1.00000
    149     -34.5538      1.00000
    150     -34.5519      1.00000
    151     -34.5386      1.00000
    152     -34.5374      1.00000
    153     -34.5365      1.00000
    154     -34.5318      1.00000
    155     -34.5305      1.00000
    156     -34.5290      1.00000
    157     -34.5277      1.00000
    158     -34.5149      1.00000
    159     -34.5126      1.00000
    160     -34.5113      1.00000
    161     -34.5074      1.00000
    162     -34.5028      1.00000
    163     -34.4988      1.00000
    164     -34.4976      1.00000
    165     -34.4903      1.00000
    166     -34.4891      1.00000
[...]
   81        1.574   3.462   0.000   5.036
   82        1.574   3.462   0.000   5.036
   83        1.574   3.461   0.000   5.035
   84        1.576   3.474   0.000   5.050
   85        1.575   3.464   0.000   5.039
   86        1.575   3.467   0.000   5.042
   87        1.575   3.464   0.000   5.039
   88        1.575   3.469   0.000   5.044
   89        1.575   3.463   0.000   5.038
   90        1.575   3.459   0.000   5.034
   91        1.574   3.462   0.000   5.036
   92        1.574   3.461   0.000   5.036
   93        1.578   3.474   0.000   5.051
   94        1.577   3.474   0.000   5.050
   95        1.577   3.478   0.000   5.054
   96        1.575   3.464   0.000   5.039
   97        1.575   3.466   0.000   5.041
   98        1.576   3.476   0.000   5.052
   99        1.575   3.464   0.000   5.038
  100        1.575   3.458   0.000   5.034
  101        1.574   3.459   0.000   5.034
  102        1.575   3.461   0.000   5.036
  103        1.576   3.460   0.000   5.036
  104        1.574   3.462   0.000   5.036
  105        1.577   3.473   0.000   5.049
  106        1.575   3.464   0.000   5.038
  107        1.575   3.463   0.000   5.038
  108        1.576   3.475   0.000   5.051
  109        1.575   3.464   0.000   5.038
  110        1.575   3.461   0.000   5.036
  111        1.574   3.476   0.000   5.050
  112        1.577   3.465   0.000   5.042
  113        1.577   3.476   0.000   5.053
  114        1.577   3.477   0.000   5.053
  115        1.574   3.465   0.000   5.040
  116        1.575   3.463   0.000   5.038
  117        1.575   3.461   0.000   5.036
  118        1.575   3.463   0.000   5.038
  119        1.571   3.490   0.000   5.061
  120        1.575   3.461   0.000   5.036
  121        1.575   3.464   0.000   5.039
  122        1.577   3.469   0.000   5.045
  123        1.577   3.474   0.000   5.051
  124        1.576   3.475   0.000   5.051
  125        1.576   3.475   0.000   5.051
  126        1.576   3.472   0.000   5.048
  127        1.575   3.459   0.000   5.034
  128        1.574   3.462   0.000   5.036
  129        1.576   3.471   0.000   5.047
  130        1.737   4.372   0.000   6.109
  131        1.736   4.373   0.000   6.109
  132        1.737   4.379   0.000   6.117
  133        1.738   4.388   0.000   6.126
  134        1.739   4.385   0.000   6.123
  135        1.737   4.369   0.000   6.106
  136        1.736   4.368   0.000   6.104
  137        1.739   4.380   0.000   6.119
  138        1.738   4.382   0.000   6.120
  139        1.739   4.389   0.000   6.128
  140        1.739   4.388   0.000   6.127
  141        1.738   4.381   0.000   6.119
  142        1.738   4.380   0.000   6.117
  143        1.738   4.388   0.000   6.126
  144        1.739   4.387   0.000   6.126
  145        1.738   4.383   0.000   6.121
  146        1.737   4.382   0.000   6.119
  147        1.737   4.382   0.000   6.119
  148        1.737   4.372   0.000   6.108
  149        1.739   4.387   0.000   6.126
  150        1.738   4.388   0.000   6.127
  151        1.738   4.376   0.000   6.114
  152        1.738   4.381   0.000   6.119
  153        1.737   4.382   0.000   6.119
  154        1.737   4.372   0.000   6.109
  155        1.737   4.373   0.000   6.110
  156        1.737   4.370   0.000   6.106
  157        1.737   4.368   0.000   6.105
  158        1.738   4.376   0.000   6.114
  159        1.738   4.377   0.000   6.114
  160        1.737   4.369   0.000   6.105
  161        1.736   4.370   0.000   6.107
  162        1.736   4.370   0.000   6.106
  163        1.736   4.368   0.000   6.104
  164        1.738   4.380   0.000   6.117
  165        1.737   4.371   0.000   6.108
  166        1.736   4.370   0.000   6.106
  167        1.737   4.370   0.000   6.107
  168        1.737   4.370   0.000   6.107
  169        1.738   4.377   0.000   6.116
  170        1.738   4.380   0.000   6.118
  171        1.737   4.370   0.000   6.107
  172        1.738   4.388   0.000   6.126
  173        1.737   4.372   0.000   6.109
  174        1.737   4.369   0.000   6.106
  175        1.739   4.384   0.000   6.123
  176        1.737   4.368   0.000   6.105
  177        1.738   4.380   0.000   6.117
  178        1.737   4.369   0.000   6.106
  179        1.738   4.377   0.000   6.115
  180        1.738   4.380   0.000   6.118
  181        1.736   4.369   0.000   6.106
  182        1.738   4.378   0.000   6.116
  183        1.737   4.369   0.000   6.106
  184        1.738   4.380   0.000   6.118
  185        1.737   4.383   0.000   6.120
  186        1.738   4.388   0.000   6.125
  187        1.737   4.371   0.000   6.108
  188        1.738   4.379   0.000   6.117
  189        1.738   4.383   0.000   6.121
  190        1.738   4.383   0.000   6.121
  191        1.739   4.387   0.000   6.126
  192        1.737   4.370   0.000   6.107
  193        1.739   4.389   0.000   6.128
  194        1.737   4.368   0.000   6.105
  195        1.737   4.370   0.000   6.107
  196        1.737   4.382   0.000   6.119
  197        1.737   4.369   0.000   6.107
  198        1.737   4.380   0.000   6.117
  199        1.738   4.382   0.000   6.120
  200        1.738   4.381   0.000   6.119
  201        1.738   4.384   0.000   6.123
  202        1.738   4.379   0.000   6.117
  203        1.738   4.381   0.000   6.119
  204        1.737   4.387   0.000   6.124
  205        1.737   4.379   0.000   6.116
  206        1.737   4.368   0.000   6.105
  207        1.737   4.369   0.000   6.106
  208        1.738   4.382   0.000   6.120
  209        1.738   4.379   0.000   6.117
  210        1.737   4.370   0.000   6.106
  211        1.737   4.371   0.000   6.108
  212        1.737   4.369   0.000   6.106
  213        1.740   4.376   0.000   6.116
  214        1.737   4.368   0.000   6.104
  215        1.738   4.387   0.000   6.126
  216        1.736   4.369   0.000   6.105
  217        1.737   4.368   0.000   6.105
  218        1.737   4.381   0.000   6.118
  219        1.738   4.380   0.000   6.118
  220        1.738   4.380   0.000   6.118
  221        1.738   4.383   0.000   6.121
  222        1.738   4.381   0.000   6.119
  223        1.738   4.386   0.000   6.124
  224        1.738   4.383   0.000   6.121
  225        1.738   4.381   0.000   6.119
  226        1.738   4.381   0.000   6.119
  227        1.737   4.380   0.000   6.117
  228        1.737   4.380   0.000   6.118
  229        1.738   4.380   0.000   6.118
  230        1.736   4.369   0.000   6.106
  231        1.738   4.378   0.000   6.116
  232        1.737   4.370   0.000   6.106
  233        1.738   4.381   0.000   6.119
  234        1.737   4.370   0.000   6.107
  235        1.737   4.370   0.000   6.107
  236        1.739   4.388   0.000   6.127
  237        1.739   4.387   0.000   6.126
  238        1.737   4.381   0.000   6.118
  239        1.738   4.378   0.000   6.116
  240        1.738   4.381   0.000   6.118
  241        1.738   4.377   0.000   6.115
  242        1.738   4.388   0.000   6.126
  243        1.738   4.388   0.000   6.126
  244        1.738   4.381   0.000   6.119
  245        1.738   4.379   0.000   6.117
  246        1.738   4.378   0.000   6.117
  247        1.738   4.386   0.000   6.125
  248        1.738   4.381   0.000   6.120
  249        1.738   4.386   0.000   6.124
  250        1.738   4.379   0.000   6.117
  251        1.738   4.380   0.000   6.118
  252        1.737   4.381   0.000   6.118
  253        1.738   4.379   0.000   6.117
  254        1.739   4.388   0.000   6.127
  255        1.738   4.378   0.000   6.117
  256        1.739   4.386   0.000   6.125
  257        1.738   4.380   0.000   6.119
--------------------------------------------------
tot        345.6251195.849 112.8361654.310
 


 magnetization (x)
 
# of ion       s       p       d       tot
------------------------------------------
    1       -0.000  -0.000   0.000  -0.000
    2       -0.000  -0.000  -0.000  -0.000
    3        0.000   0.001   0.060   0.061
    4       -0.000  -0.000   0.000   0.000
    5       -0.000   0.000   0.009   0.009
    6       -0.000  -0.000  -0.000  -0.000
    7        0.000   0.000   0.000   0.000
    8        0.000   0.000   0.000   0.000
    9        0.000   0.000   0.000   0.000
   10       -0.000  -0.000  -0.000  -0.000
   11        0.000  -0.000   0.000   0.000
   12       -0.000  -0.000   0.000   0.000
   13       -0.000  -0.000  -0.000  -0.000
   14       -0.000  -0.000  -0.000  -0.000
   15       -0.000  -0.000  -0.000  -0.000
   16       -0.000  -0.000   0.000  -0.000
   17        0.000  -0.000   0.000   0.000
   18        0.000   0.000   0.000   0.000
   19        0.000   0.000   0.001   0.001
   20       -0.000  -0.000  -0.000  -0.000
   21        0.005   0.007   0.881   0.892
   22        0.000   0.000   0.000   0.000
   23        0.000   0.000   0.000   0.000
   24        0.000   0.000   0.000   0.000
   25       -0.000  -0.000   0.001   0.001
   26       -0.000   0.000   0.000   0.000
   27       -0.000  -0.000   0.000   0.000
   28       -0.000  -0.000   0.000  -0.000
   29       -0.000  -0.000  -0.000  -0.001
   30       -0.000   0.000   0.000   0.000
   31       -0.000  -0.000   0.000   0.000
   32       -0.000  -0.000   0.000   0.000
   33       -0.000  -0.000   0.000   0.000
   34       -0.000  -0.000  -0.000  -0.000
   35        0.000   0.000   0.004   0.004
   36        0.000   0.000   0.000   0.000
   37        0.000   0.000   0.000   0.000
   38       -0.000  -0.000   0.000   0.000
   39        0.000   0.000   0.002   0.002
   40       -0.000  -0.000   0.000   0.000
   41        0.000   0.000   0.003   0.003
   42        0.000  -0.000  -0.000  -0.000
   43       -0.000  -0.000  -0.000  -0.000
   44       -0.000  -0.000   0.000   0.000
   45       -0.000  -0.000  -0.000  -0.000
   46       -0.000  -0.000  -0.000  -0.000
   47       -0.000  -0.000   0.000   0.000
   48       -0.000  -0.000   0.000   0.000
   49       -0.000  -0.000  -0.000  -0.000
   50        0.000   0.000   0.000   0.000
   51        0.000   0.000   0.000   0.000
   52       -0.000  -0.000   0.000   0.000
   53       -0.000   0.000   0.009   0.009
   54        0.000   0.000  -0.000   0.000
   55        0.000   0.000   0.001   0.001
   56        0.000  -0.000   0.000   0.000
   57       -0.000  -0.000   0.006   0.006
   58        0.000   0.000   0.000   0.000
   59       -0.000  -0.000  -0.000  -0.000
   60       -0.000  -0.000   0.000   0.000
   61       -0.000  -0.000   0.000   0.000
   62       -0.000  -0.000   0.000   0.000
   63       -0.000  -0.000  -0.000  -0.000
   64       -0.000  -0.000   0.000  -0.000
   65        0.000   0.000   0.000   0.000
   66       -0.000  -0.000   0.000  -0.000
   67       -0.000  -0.003   0.000  -0.003
   68       -0.000  -0.000   0.000  -0.000
   69       -0.000  -0.000   0.000  -0.000
   70       -0.000  -0.000   0.000  -0.000
   71       -0.000  -0.000   0.000  -0.000
   72       -0.001  -0.012   0.000  -0.013
   73       -0.000  -0.000   0.000  -0.000
   74       -0.000  -0.000   0.000  -0.000
   75       -0.000  -0.000   0.000  -0.000
   76       -0.000  -0.000   0.000  -0.000
   77       -0.000  -0.000   0.000  -0.000
   78       -0.000  -0.000   0.000  -0.000
   79       -0.000  -0.000   0.000  -0.000
   80       -0.000  -0.000   0.000  -0.000
   81       -0.000  -0.000   0.000  -0.000
   82       -0.000  -0.000   0.000  -0.000
   83       -0.000  -0.000   0.000  -0.000
   84       -0.000  -0.000   0.000  -0.000
   85       -0.000  -0.000   0.000  -0.000
   86       -0.000  -0.000   0.000  -0.000
   87       -0.000  -0.000   0.000  -0.000
   88       -0.000  -0.000   0.000  -0.000
   89        0.000  -0.000   0.000  -0.000
   90       -0.000  -0.000   0.000  -0.000
   91       -0.000  -0.000   0.000  -0.000
   92       -0.000  -0.000   0.000  -0.000
   93       -0.000  -0.000   0.000  -0.000
   94       -0.000  -0.000   0.000  -0.000
   95       -0.000  -0.001   0.000  -0.001
   96       -0.000  -0.000   0.000  -0.000
   97       -0.000  -0.000   0.000  -0.000
   98       -0.000  -0.000   0.000  -0.000
   99       -0.000  -0.000   0.000  -0.000
  100       -0.000  -0.000   0.000  -0.000
  101        0.000   0.000   0.000   0.000
  102        0.000  -0.000   0.000  -0.000
  103       -0.000  -0.000   0.000  -0.000
  104       -0.000  -0.001   0.000  -0.001
  105       -0.000  -0.000   0.000  -0.000
  106       -0.000  -0.000   0.000  -0.000
  107       -0.000  -0.000   0.000  -0.000
  108       -0.000  -0.000   0.000  -0.000
  109       -0.000  -0.000   0.000  -0.000
  110       -0.000  -0.000   0.000  -0.000
  111       -0.000  -0.000   0.000  -0.000
  112       -0.000  -0.000   0.000  -0.000
  113       -0.000  -0.000   0.000  -0.000
  114       -0.000  -0.000   0.000  -0.000
  115       -0.000  -0.000   0.000  -0.000
  116       -0.000  -0.000   0.000  -0.000
  117       -0.000  -0.000   0.000  -0.000
  118        0.000   0.000   0.000   0.000
  119       -0.001  -0.025   0.000  -0.026
  120       -0.000  -0.000   0.000  -0.000
  121       -0.000  -0.000   0.000  -0.000
  122       -0.000  -0.000   0.000  -0.000
  123       -0.000  -0.000   0.000  -0.000
  124       -0.000  -0.000   0.000  -0.000
  125       -0.000  -0.000   0.000  -0.000
  126        0.000  -0.000   0.000  -0.000
  127        0.000  -0.000   0.000  -0.000
  128       -0.000  -0.001   0.000  -0.002
  129       -0.000  -0.000   0.000  -0.000
  130       -0.000  -0.000   0.000  -0.000
  131       -0.000  -0.000   0.000  -0.000
  132       -0.000  -0.000   0.000  -0.000
  133       -0.000  -0.000   0.000  -0.000
  134       -0.000  -0.000   0.000  -0.000
  135       -0.000  -0.000   0.000  -0.000
  136       -0.000  -0.000   0.000  -0.000
  137       -0.000  -0.000   0.000  -0.000
  138       -0.000  -0.000   0.000  -0.000
  139       -0.000  -0.000   0.000  -0.000
  140        0.000  -0.000   0.000  -0.000
  141        0.000  -0.000   0.000  -0.000
  142       -0.000  -0.000   0.000  -0.000
  143       -0.000  -0.000   0.000  -0.000
  144       -0.000  -0.000   0.000  -0.000
  145       -0.000  -0.000   0.000  -0.000
  146       -0.000  -0.000   0.000  -0.000
  147       -0.000  -0.007   0.000  -0.007
  148       -0.000  -0.000   0.000  -0.000
  149       -0.000  -0.000   0.000  -0.000
  150       -0.000  -0.000   0.000  -0.000
  151       -0.000  -0.000   0.000  -0.000
  152       -0.000  -0.000   0.000  -0.000
  153       -0.000  -0.000   0.000  -0.000
  154       -0.000  -0.000   0.000  -0.000
  155       -0.000  -0.000   0.000  -0.000
  156       -0.000  -0.000   0.000  -0.000
  157       -0.000  -0.000   0.000  -0.000
  158       -0.000  -0.000   0.000  -0.000
  159       -0.000  -0.000   0.000  -0.000
  160       -0.000  -0.000   0.000  -0.000
  161       -0.000  -0.000   0.000  -0.000
  162       -0.000  -0.000   0.000  -0.000
  163       -0.000  -0.000   0.000  -0.000
  164       -0.000  -0.000   0.000  -0.000
  165       -0.000  -0.000   0.000  -0.000
  166       -0.000  -0.000   0.000  -0.000
  167       -0.000  -0.000   0.000  -0.000
  168       -0.000  -0.000   0.000  -0.000
  169       -0.000  -0.000   0.000  -0.000
  170       -0.000  -0.000   0.000  -0.000
  171        0.000   0.000   0.000   0.000
  172       -0.000  -0.001   0.000  -0.001
  173        0.000   0.000   0.000   0.000
  174        0.000   0.000   0.000   0.000
  175        0.000  -0.000   0.000  -0.000
  176       -0.000  -0.000   0.000  -0.000
  177        0.000  -0.000   0.000  -0.000
  178       -0.000  -0.000   0.000  -0.000
  179       -0.000  -0.000   0.000  -0.000
  180       -0.000  -0.000   0.000  -0.000
  181       -0.000  -0.000   0.000  -0.000
  182        0.000  -0.000   0.000  -0.000
  183       -0.000  -0.000   0.000  -0.000
  184       -0.000  -0.000   0.000  -0.000
  185        0.000  -0.000   0.000  -0.000
  186       -0.000   0.002   0.000   0.001
  187       -0.000  -0.000   0.000  -0.000
  188       -0.000  -0.000   0.000  -0.000
  189       -0.000  -0.000   0.000  -0.000
  190       -0.000  -0.000   0.000  -0.000
  191       -0.000  -0.000   0.000  -0.000
  192       -0.000  -0.000   0.000  -0.000
  193       -0.000   0.000   0.000   0.000
  194       -0.000  -0.000   0.000  -0.000
  195       -0.000  -0.000   0.000  -0.000
  196       -0.000  -0.000   0.000  -0.000
  197       -0.000  -0.000   0.000  -0.000
  198       -0.000  -0.000   0.000  -0.000
  199       -0.000  -0.000   0.000  -0.000
  200       -0.000  -0.000   0.000  -0.000
  201       -0.000  -0.000   0.000  -0.000
  202       -0.000  -0.000   0.000  -0.000
  203        0.000  -0.000   0.000  -0.000
  204       -0.000   0.002   0.000   0.002
  205       -0.000  -0.000   0.000  -0.000
  206       -0.000  -0.000   0.000  -0.000
  207       -0.000  -0.000   0.000  -0.000
  208       -0.000  -0.000   0.000  -0.000
  209       -0.000  -0.000   0.000  -0.000
  210       -0.000  -0.000   0.000  -0.000
  211       -0.000  -0.000   0.000  -0.000
  212       -0.000  -0.000   0.000  -0.000
  213        0.000  -0.000   0.000  -0.000
  214       -0.000  -0.000   0.000  -0.000
  215       -0.000   0.001   0.000   0.001
  216       -0.000  -0.000   0.000  -0.000
  217       -0.000  -0.000   0.000  -0.000
  218       -0.000  -0.000   0.000  -0.000
  219       -0.000  -0.000   0.000  -0.000
  220       -0.000  -0.000   0.000  -0.000
  221       -0.000  -0.000   0.000  -0.000
  222        0.000  -0.000   0.000   0.000
  223       -0.000  -0.000   0.000  -0.000
  224       -0.000  -0.000   0.000  -0.000
  225       -0.000  -0.000   0.000  -0.000
  226       -0.000  -0.000   0.000  -0.000
  227       -0.000  -0.000   0.000  -0.000
  228        0.000  -0.000   0.000  -0.000
  229       -0.000  -0.000   0.000  -0.000
  230       -0.000  -0.000   0.000  -0.000
  231        0.000   0.000   0.000   0.000
  232       -0.000  -0.000   0.000  -0.000
  233        0.000   0.000   0.000   0.000
  234       -0.000  -0.000   0.000  -0.000
  235        0.000   0.000   0.000   0.000
  236       -0.000   0.000   0.000   0.000
  237       -0.000  -0.000   0.000  -0.000
  238        0.000  -0.000   0.000  -0.000
  239       -0.000  -0.000   0.000  -0.000
  240       -0.000  -0.000   0.000  -0.000
  241       -0.000  -0.000   0.000  -0.000
  242        0.000  -0.000   0.000  -0.000
  243       -0.000  -0.000   0.000  -0.000
  244       -0.000  -0.000   0.000  -0.000
  245       -0.000  -0.000   0.000  -0.000
  246       -0.000   0.000   0.000   0.000
  247       -0.000  -0.000   0.000  -0.000
  248       -0.000   0.000   0.000   0.000
  249       -0.000  -0.000   0.000  -0.000
  250        0.000   0.000   0.000   0.000
  251       -0.000  -0.000   0.000  -0.000
  252       -0.000  -0.000   0.000  -0.000
  253       -0.000  -0.000   0.000  -0.000
  254       -0.000  -0.000   0.000  -0.000
  255       -0.000  -0.000   0.000  -0.000
  256       -0.000  -0.000   0.000  -0.000
  257       -0.000  -0.000   0.000  -0.000
--------------------------------------------------
tot          0.002  -0.043   0.978   0.937
 

 total amount of memory used by VASP MPI-rank0   291695. kBytes
=======================================================================

   base      :      30000. kBytes
   nonlr-proj:      49660. kBytes
   fftplans  :      27976. kBytes
   grid      :      34041. kBytes
   one-center:       1026. kBytes
   wavefun   :     148992. kBytes
 
  
  
 General timing and accounting informations for this job:
 ========================================================
  
                  Total CPU time used (sec):      799.435
                            User time (sec):      466.935
                          System time (sec):      332.501
                         Elapsed time (sec):      831.702
  
                   Maximum memory used (kb):      620668.
                   Average memory used (kb):           0.
  
                          Minor page faults:        74798
                          Major page faults:            0
                 Voluntary context switches:        15410
