 vasp.6.3.0 20Jan22 (build Jan 25 2022 13:20:17) complex                        
  
 executed on             LinuxIFC date 2024.06.05  15:59:04
 running on   80 total cores
 distrk:  each k-point on   80 cores,    1 groups
 distr:  one band on NCORE=   8 cores,   10 groups


--------------------------------------------------------------------------------------------------------


 INCAR:
   SYSTEM = LTO
   ISTART = 1
   ENCUT = 700.0
   IALGO = 38
   EDIFF = 1E-6
   PREC = Accurate
   ISPIN = 2
   LMAXMIX = 4
   ADDGRID = .TRUE.
   LASPH = .TRUE.
   LREAL = Auto
   ROPT = 1E-4 1E-4 1E-4
   GGA = PS
   LDAU = .TRUE.
   LDAUTYPE = 2
   LDAUL = 2   -1    -1
   LDAUU = 4.2  0.0  0.0
   LDAUJ = 0.0  0.0  0.0
   NSW = 100
   EDIFFG = -0.01
   IBRION = 1
   ISIF = 3
   ISMEAR = 0
   SIGMA = 0.01
   ISYM = 0
   LORBIT = 11
   NEDOS = 3001
   NWRITE = 2
   NCORE = 8

 POTCAR:   PAW_PBE Ti_pv 07Sep2000                
 POTCAR:   PAW_PBE O 08Apr2002                    
 POTCAR:    PAW_PBE F 08Apr2002                   
 -----------------------------------------------------------------------------
|                                                                             |
|           W    W    AA    RRRRR   N    N  II  N    N   GGGG   !!!           |
|           W    W   A  A   R    R  NN   N  II  NN   N  G    G  !!!           |
|           W    W  A    A  R    R  N N  N  II  N N  N  G       !!!           |
|           W WW W  AAAAAA  RRRRR   N  N N  II  N  N N  G  GGG   !            |
|           WW  WW  A    A  R   R   N   NN  II  N   NN  G    G                |
|           W    W  A    A  R    R  N    N  II  N    N   GGGG   !!!           |
|                                                                             |
|     You use a magnetic or noncollinear calculation, but did not specify     |
|     the initial magnetic moment with the MAGMOM tag. Note that a            |
|     default of 1 will be used for all atoms. This ferromagnetic setup       |
|     may break the symmetry of the crystal, in particular it may rule        |
|     out finding an antiferromagnetic solution. Thence, we recommend         |
|     setting the initial magnetic moment manually or verifying carefully     |
|     that this magnetic setup is desired.                                    |
|                                                                             |
 -----------------------------------------------------------------------------

 POTCAR:   PAW_PBE Ti_pv 07Sep2000                
   VRHFIN =Ti: d3 s1                                                                                
   LEXCH  = PE                                                                                      
   EATOM  =  1042.3781 eV,   76.6126 Ry                                                             
                                                                                                    
   TITEL  = PAW_PBE Ti_pv 07Sep2000                                                                 
   LULTRA =        F    use ultrasoft PP ?                                                          
   IUNSCR =        1    unscreen: 0-lin 1-nonlin 2-no                                               
   RPACOR =    2.200    partial core radius                                                         
   POMASS =   47.880; ZVAL   =   10.000    mass and valenz                                          
   RCORE  =    2.500    outmost cutoff radius                                                       
   RWIGS  =    2.500; RWIGS  =    1.323    wigner-seitz radius (au A)                               
   ENMAX  =  222.338; ENMIN  =  166.753 eV                                                          
   RCLOC  =    1.701    cutoff for local pot                                                        
   LCOR   =        T    correct aug charges                                                         
   LPAW   =        T    paw PP                                                                      
   EAUG   =  482.848                                                                                
   DEXC   =    -.008                                                                                
   RMAX   =    3.092    core radius for proj-oper                                                   
   RAUG   =    1.300    factor for augmentation sphere                                              
   RDEP   =    2.538    radius for radial grids                                                     
   QCUT   =   -4.042; QGAM   =    8.085    optimization parameters                                  
                                                                                                    
   Description                                                                                      
     l     E      TYP  RCUT    TYP  RCUT                                                            
     1   .000     23  2.300                                                                         
     1  -.100     23  2.300                                                                         
     2   .000     23  2.500                                                                         
     2   .000     23  2.500                                                                         
     0   .000     23  2.500                                                                         
     0  1.500     23  2.500                                                                         
     3   .000      7   .000                                                                         
  local pseudopotential read in
  partial core-charges read in
  atomic valenz-charges read in
  non local Contribution for L=           1  read in
    real space projection operators read in
  non local Contribution for L=           1  read in
    real space projection operators read in
  non local Contribution for L=           2  read in
    real space projection operators read in
  non local Contribution for L=           2  read in
    real space projection operators read in
  non local Contribution for L=           0  read in
    real space projection operators read in
  non local Contribution for L=           0  read in
    real space projection operators read in
    PAW grid and wavefunctions read in
 
   number of l-projection  operators is LMAX  =           6
   number of lm-projection operators is LMMAX =          18
 
 POTCAR:   PAW_PBE O 08Apr2002                    
   VRHFIN =O: s2p4                                                                                  
   LEXCH  = PE                                                                                      
   EATOM  =   432.3788 eV,   31.7789 Ry                                                             
                                                                                                    
   TITEL  = PAW_PBE O 08Apr2002                                                                     
   LULTRA =        F    use ultrasoft PP ?                                                          
   IUNSCR =        0    unscreen: 0-lin 1-nonlin 2-no                                               
   RPACOR =     .000    partial core radius                                                         
   POMASS =   16.000; ZVAL   =    6.000    mass and valenz                                          
   RCORE  =    1.520    outmost cutoff radius                                                       
   RWIGS  =    1.550; RWIGS  =     .820    wigner-seitz radius (au A)                               
   ENMAX  =  400.000; ENMIN  =  300.000 eV                                                          
   ICORE  =        2    local potential                                                             
   LCOR   =        T    correct aug charges                                                         
   LPAW   =        T    paw PP                                                                      
   EAUG   =  605.392                                                                                
   DEXC   =     .000                                                                                
   RMAX   =    2.264    core radius for proj-oper                                                   
   RAUG   =    1.300    factor for augmentation sphere                                              
   RDEP   =    1.550    radius for radial grids                                                     
   QCUT   =   -5.520; QGAM   =   11.041    optimization parameters                                  
                                                                                                    
   Description                                                                                      
     l     E      TYP  RCUT    TYP  RCUT                                                            
     0   .000     23  1.200                                                                         
     0  -.700     23  1.200                                                                         
     1   .000     23  1.520                                                                         
     1   .600     23  1.520                                                                         
     2   .000      7  1.500                                                                         
  local pseudopotential read in
  atomic valenz-charges read in
  non local Contribution for L=           0  read in
    real space projection operators read in
  non local Contribution for L=           0  read in
    real space projection operators read in
  non local Contribution for L=           1  read in
    real space projection operators read in
  non local Contribution for L=           1  read in
    real space projection operators read in
    PAW grid and wavefunctions read in
 
   number of l-projection  operators is LMAX  =           4
   number of lm-projection operators is LMMAX =           8
 
 POTCAR:    PAW_PBE F 08Apr2002                   
   VRHFIN =F: s2p5                                                                                  
   LEXCH  = PE                                                                                      
   EATOM  =   659.6475 eV,   48.4827 Ry                                                             
                                                                                                    
   TITEL  = PAW_PBE F 08Apr2002                                                                     
   LULTRA =        F    use ultrasoft PP ?                                                          
   IUNSCR =        1    unscreen: 0-lin 1-nonlin 2-no                                               
   RPACOR =    1.200    partial core radius                                                         
   POMASS =   18.998; ZVAL   =    7.000    mass and valenz                                          
   RCORE  =    1.520    outmost cutoff radius                                                       
   RWIGS  =    1.500; RWIGS  =    0.794    wigner-seitz radius (au A)                               
   ENMAX  =  400.000; ENMIN  =  300.000 eV                                                          
   ICORE  =        2    local potential                                                             
   LCOR   =        T    correct aug charges                                                         
   LPAW   =        T    paw PP                                                                      
   EAUG   =  613.614                                                                                
   RMAX   =    1.555    core radius for proj-oper                                                   
   RAUG   =    1.300    factor for augmentation sphere                                              
   RDEP   =    1.539    radius for radial grids                                                     
   RDEPT  =    1.299    core radius for aug-charge                                                  
                                                                                                    
   Atomic configuration                                                                             
    4 entries                                                                                       
     n  l   j            E        occ.                                                              
     1  0  0.50      -663.3661   2.0000                                                             
     2  0  0.50       -29.8995   2.0000                                                             
     2  1  0.50       -11.1114   5.0000                                                             
     3  2  1.50       -10.8847   0.0000                                                             
   Description                                                                                      
     l       E           TYP  RCUT    TYP  RCUT                                                     
     0    -29.8995018     23  1.200                                                                 
     0     -9.5240782     23  1.200                                                                 
     1    -11.1113914     23  1.520                                                                 
     1      1.3605826     23  1.520                                                                 
     2    -10.8846608      7  1.500                                                                 
  local pseudopotential read in
  partial core-charges read in
  partial kinetic energy density read in
  atomic valenz-charges read in
  non local Contribution for L=           0  read in
    real space projection operators read in
  non local Contribution for L=           0  read in
    real space projection operators read in
  non local Contribution for L=           1  read in
    real space projection operators read in
  non local Contribution for L=           1  read in
    real space projection operators read in
    PAW grid and wavefunctions read in
 
   number of l-projection  operators is LMAX  =           4
   number of lm-projection operators is LMMAX =           8
 
 Optimization of the real space projectors (new method)

 maximal supplied QI-value         = 15.12
 optimisation between [QCUT,QGAM] = [ 13.45, 27.06] = [ 50.69,205.06] Ry 
 Optimized for a Real-space Cutoff    1.49 Angstroem

   l    n(q)    QCUT    max X(q) W(low)/X(q) W(high)/X(q)  e(spline) 
   1     12    13.455     4.841    0.13E-05    0.83E-06    0.56E-07
   1     12    13.455     5.701    0.32E-04    0.25E-04    0.17E-06
   2     11    13.455     4.569    0.64E-05    0.34E-05    0.50E-07
   2     11    13.455    32.276    0.49E-04    0.38E-04    0.46E-06
   0     12    13.455    30.046    0.17E-04    0.41E-05    0.51E-07
   0     12    13.455    45.433    0.12E-04    0.27E-04    0.38E-06
 Optimization of the real space projectors (new method)

 maximal supplied QI-value         = 24.76
 optimisation between [QCUT,QGAM] = [ 13.37, 26.98] = [ 50.04,203.89] Ry 
 Optimized for a Real-space Cutoff    1.17 Angstroem

   l    n(q)    QCUT    max X(q) W(low)/X(q) W(high)/X(q)  e(spline) 
   0      9    13.368     4.192    0.20E-04    0.58E-05    0.56E-07
   0      9    13.368     8.473    0.60E-04    0.52E-04    0.21E-06
   1      9    13.368     2.474    0.22E-04    0.17E-04    0.28E-07
   1      9    13.368     3.912    0.94E-04    0.97E-04    0.20E-06
 Optimization of the real space projectors (new method)

 maximal supplied QI-value         = 24.76
 optimisation between [QCUT,QGAM] = [ 13.37, 26.98] = [ 50.04,203.89] Ry 
 Optimized for a Real-space Cutoff    1.17 Angstroem

   l    n(q)    QCUT    max X(q) W(low)/X(q) W(high)/X(q)  e(spline) 
   0      9    13.368    14.049    0.39E-04    0.34E-04    0.16E-06
   0      9    13.368     8.945    0.54E-04    0.47E-04    0.20E-06
   1      9    13.368     7.086    0.99E-04    0.10E-03    0.23E-06
   1      9    13.368     6.747    0.86E-04    0.89E-04    0.21E-06
 -----------------------------------------------------------------------------
|                                                                             |
|               ----> ADVICE to this user running VASP <----                  |
|                                                                             |
|     You enforced a specific xc type in the INCAR file but a different       |
|     type was found in the POTCAR file.                                      |
|     I HOPE YOU KNOW WHAT YOU ARE DOING!                                     |
|                                                                             |
 -----------------------------------------------------------------------------

 PAW_PBE Ti_pv 07Sep2000                :
 energy of atom  1       EATOM=-1042.3781
 kinetic energy error for atom=    0.0006 (will be added to EATOM!!)
 PAW_PBE O 08Apr2002                    :
 energy of atom  2       EATOM= -432.3788
 kinetic energy error for atom=    0.0091 (will be added to EATOM!!)
  PAW_PBE F 08Apr2002                   :
 energy of atom  3       EATOM= -659.6475
 kinetic energy error for atom=    0.0140 (will be added to EATOM!!)
 
 
 POSCAR: Ti27 O27 F54
  positions in direct lattice
  velocities in cartesian coordinates
 exchange correlation table for  LEXCH =       14
   RHO(1)=    0.500       N(1)  =     2000
   RHO(2)=  100.500       N(2)  =     4000
 


--------------------------------------------------------------------------------------------------------


 ion  position               nearest neighbor table
   1  0.993  0.999  0.013-  46 1.79  42 1.88  55 1.93  58 1.93  73 2.03  92 2.07
   2  0.010  0.010  0.328-  28 1.83  37 1.84  46 1.87  91 2.02  86 2.06  59 2.10
   3  0.010  0.011  0.667-  29 1.80  38 1.82  92 1.96  91 1.97  60 2.07  87 2.09
   4  0.008  0.343  0.990-  47 1.83  30 1.84  39 1.87  88 2.05  93 2.07  55 2.08
   5  0.991  0.321  0.334-  28 1.80  43 1.84  94 1.93  93 1.94  74 2.04  56 2.13
   6  0.008  0.325  0.676-  47 1.82  40 1.86  29 1.87  57 2.05  89 2.06  94 2.08
   7  0.992  0.656  0.990-  30 1.81  48 1.84  44 1.87  75 2.05  58 2.07  95 2.10
   8  0.001  0.667  0.333-  96 1.88  95 1.89  56 1.89  59 1.89  76 1.90  90 1.90
   9  0.991  0.667  0.680-  48 1.79  45 1.83  60 1.94  57 1.94  77 2.05  96 2.13
  10  0.335  0.000  0.987-  49 1.76  65 1.93  61 1.93  78 1.94  73 1.94  97 2.07
  11  0.322  0.011  0.333-  37 1.81  31 1.82  97 1.95  98 1.95  79 2.06  66 2.08
  12  0.323  0.991  0.671-  38 1.82  33 1.85  49 1.91  98 2.02  62 2.04  80 2.08
  13  0.323  0.343  0.000-  39 1.79  32 1.84  99 1.95 100 1.96  61 2.07  81 2.07
  14  0.333  0.324  0.343-  50 1.81  31 1.83  82 1.95  74 1.96  99 2.04  63 2.07
  15  0.322  0.333  0.658-  40 1.79  50 1.85  64 1.95  62 1.96 100 2.04  83 2.09
  16  0.333  0.657  0.990-  32 1.81  51 1.82  84 1.95  75 1.95 101 2.07  65 2.07
  17  0.348  0.667  0.333-  41 1.75 101 1.92 102 1.93  63 1.93  66 1.93  76 2.12
  18  0.332  0.678  0.676-  33 1.81  51 1.83  85 1.94  77 1.96  64 2.06 102 2.08
  19  0.679  1.000  0.999-  42 1.77  67 1.92  71 1.93 104 1.93 103 1.94  78 2.06
  20  0.666  0.988  0.340-  36 1.79  52 1.87  86 1.93  79 1.94 103 2.03  68 2.06
  21  0.666  0.001  0.655-  52 1.78  80 1.92  69 1.93  87 1.93  72 1.93 104 2.07
  22  0.666  0.344  0.009-  34 1.81  53 1.83  81 1.94  88 1.94 106 2.06  67 2.08
  23  0.676  0.332  0.323-  53 1.82  43 1.82  68 1.95  70 1.96  82 2.04 105 2.06
  24  0.666  0.347  0.667-  35 1.76  83 1.92  89 1.93 106 1.94 105 1.94  69 2.09
  25  0.678  0.657  1.000-  44 1.80  34 1.84 108 1.95 107 1.95  84 2.08  71 2.08
  26  0.660  0.674  0.344-  54 1.81  36 1.86  41 1.88  70 2.02 107 2.05  90 2.07
  27  0.676  0.661  0.659-  45 1.83  54 1.85  35 1.89  72 2.04 108 2.05  85 2.05
  28  0.005  0.167  0.342-   5 1.80   2 1.83
  29  0.992  0.165  0.661-   3 1.80   6 1.87
  30  0.998  0.501  0.009-   7 1.81   4 1.84
  31  0.331  0.167  0.330-  11 1.82  14 1.83
  32  0.336  0.501  0.001-  16 1.81  13 1.84
  33  0.334  0.833  0.659-  18 1.81  12 1.85
  34  0.667  0.499  0.994-  22 1.81  25 1.84
  35  0.664  0.498  0.671-  24 1.76  27 1.89
  36  0.671  0.834  0.326-  20 1.79  26 1.86
  37  0.167  0.991  0.341-  11 1.81   2 1.84
  38  0.167  0.004  0.659-  12 1.82   3 1.82
  39  0.169  0.330  0.999-  13 1.79   4 1.87
  40  0.168  0.332  0.670-  15 1.79   6 1.86
  41  0.499  0.664  0.332-  17 1.75  26 1.88
  42  0.831  0.995  0.997-  19 1.77   1 1.88
  43  0.833  0.334  0.337-  23 1.82   5 1.84
  44  0.832  0.675  0.997-  25 1.80   7 1.87
  45  0.833  0.670  0.673-  27 1.83   9 1.83
  46  0.000  0.998  0.167-   1 1.79   2 1.87
  47  0.992  0.337  0.832-   6 1.82   4 1.83
  48  0.011  0.664  0.833-   9 1.79   7 1.84
  49  0.335  0.999  0.835-  10 1.76  12 1.91
  50  0.334  0.337  0.499-  14 1.81  15 1.85
  51  0.329  0.671  0.834-  16 1.82  18 1.83
  52  0.668  0.998  0.501-  21 1.78  20 1.87
  53  0.664  0.332  0.166-  23 1.82  22 1.83
  54  0.670  0.670  0.500-  26 1.81  27 1.85
  55  0.999  0.165  0.999-   1 1.93   4 2.08
  56  0.005  0.504  0.326-   8 1.89   5 2.13
  57  0.997  0.500  0.658-   9 1.94   6 2.05
  58  0.009  0.834  0.999-   1 1.93   7 2.07
  59  0.990  0.830  0.338-   8 1.89   2 2.10
  60  0.004  0.833  0.663-   9 1.94   3 2.07
  61  0.339  0.165  0.007-  10 1.93  13 2.07
  62  0.340  0.166  0.665-  15 1.96  12 2.04
  63  0.326  0.502  0.325-  17 1.93  14 2.07
  64  0.339  0.500  0.671-  15 1.95  18 2.06
  65  0.333  0.835  0.006-  10 1.93  16 2.07
  66  0.337  0.832  0.340-  17 1.93  11 2.08
  67  0.664  0.165  0.995-  19 1.92  22 2.08
  68  0.660  0.165  0.336-  23 1.95  20 2.06
  69  0.673  0.166  0.668-  21 1.93  24 2.09
  70  0.668  0.500  0.335-  23 1.96  26 2.02
  71  0.658  0.835  0.006-  19 1.93  25 2.08
  72  0.658  0.835  0.673-  21 1.93  27 2.04
  73  0.168  0.004  0.001-  10 1.94   1 2.03
  74  0.166  0.342  0.327-  14 1.96   5 2.04
  75  0.167  0.672  0.011-  16 1.95   7 2.05
  76  0.165  0.673  0.336-   8 1.90  17 2.12
  77  0.166  0.661  0.654-  18 1.96   9 2.05
  78  0.501  0.000  0.005-  10 1.94  19 2.06
  79  0.499  0.997  0.327-  20 1.94  11 2.06
  80  0.502  0.006  0.668-  21 1.92  12 2.08
  81  0.500  0.327  0.994-  22 1.94  13 2.07
  82  0.501  0.340  0.334-  14 1.95  23 2.04
  83  0.501  0.327  0.671-  24 1.92  15 2.09
  84  0.500  0.673  0.008-  16 1.95  25 2.08
  85  0.499  0.666  0.663-  18 1.94  27 2.05
  86  0.832  0.005  0.330-  20 1.93   2 2.06
  87  0.831  0.990  0.677-  21 1.93   3 2.09
  88  0.832  0.324  0.004-  22 1.94   4 2.05
  89  0.831  0.336  0.654-  24 1.93   6 2.06
  90  0.837  0.658  0.329-   8 1.90  26 2.07
  91  0.985  0.990  0.500-   3 1.97   2 2.02
  92  0.004  0.997  0.835-   3 1.96   1 2.07
  93  0.998  0.328  0.167-   5 1.94   4 2.07
  94  0.006  0.345  0.498-   5 1.93   6 2.08
  95  0.002  0.676  0.171-   8 1.89   7 2.10
  96  0.998  0.665  0.496-   8 1.88   9 2.13
  97  0.332  0.995  0.166-  11 1.95  10 2.07
  98  0.347  0.004  0.499-  11 1.95  12 2.02
  99  0.340  0.335  0.167-  13 1.95  14 2.04
 100  0.341  0.328  0.833-  13 1.96  15 2.04
 101  0.328  0.673  0.168-  17 1.92  16 2.07
 102  0.331  0.657  0.498-  17 1.93  18 2.08
 103  0.666  0.009  0.166-  19 1.94  20 2.03
 104  0.660  0.999  0.833-  19 1.93  21 2.07
 105  0.658  0.330  0.500-  24 1.94  23 2.06
 106  0.673  0.324  0.832-  24 1.94  22 2.06
 107  0.669  0.661  0.168-  25 1.95  26 2.05
 108  0.654  0.676  0.834-  25 1.95  27 2.05
 

IMPORTANT INFORMATION: All symmetrisations will be switched off!
NOSYMM: (Re-)initialisation of all symmetry stuff for point group C_1.


----------------------------------------------------------------------------------------

                                     Primitive cell                                     

  volume of cell :    1555.6458

  direct lattice vectors                    reciprocal lattice vectors
    11.585128241 -0.006379360 -0.015432762     0.086317739  0.000047319  0.000114927
    -0.006355053 11.593425593 -0.000357038     0.000047501  0.086255809  0.000002879
    -0.015421112 -0.000378096 11.582411676     0.000115014  0.000002722  0.086337958

  length of vectors
    11.585140277 11.593427341 11.582421948     0.086317828  0.086255822  0.086338035

  position of ions in fractional coordinates (direct lattice)
     0.993312736  0.999162731  0.012762384
     0.009603877  0.009562956  0.327985042
     0.009533401  0.011434337  0.666552573
     0.007961159  0.343496870  0.989692725
     0.990886939  0.320970849  0.333986605
     0.007791939  0.324798776  0.676401444
     0.992283008  0.656135647  0.990370966
     0.001116854  0.666819328  0.333172197
     0.990701933  0.666599870  0.679774446
     0.335139851  0.000144575  0.987469338
     0.322049706  0.010615815  0.332722050
     0.322945704  0.991203664  0.671378602
     0.322547180  0.342965333  0.000021797
     0.333018054  0.324342850  0.343314399
     0.321880966  0.333347554  0.657847044
     0.333300977  0.656791187  0.990355310
     0.347504497  0.666552258  0.333112122
     0.332488538  0.677679706  0.676351794
     0.678791659  0.999940827  0.998741475
     0.666301204  0.987851010  0.339813777
     0.666399835  0.000673659  0.654640846
     0.666254615  0.343583473  0.009129210
     0.676426730  0.332201127  0.322894499
     0.665990315  0.346506775  0.666705136
     0.677983925  0.657385801  0.999733607
     0.660189154  0.674428412  0.344069472
     0.676191259  0.660769141  0.658974430
     0.004930814  0.166889960  0.341688293
     0.991708084  0.165313580  0.661131422
     0.997585899  0.500870587  0.009353697
     0.330689917  0.167285305  0.330430882
     0.336106370  0.501094218  0.000561736
     0.333957265  0.832886716  0.659376857
     0.666835144  0.499246161  0.993530853
     0.664008069  0.498265693  0.671403928
     0.671255873  0.833907428  0.326474848
     0.167156365  0.991021727  0.341406215
     0.166654350  0.004139205  0.659143890
     0.168661790  0.329522401  0.998876546
     0.168235596  0.332007485  0.670316185
     0.498641985  0.663591292  0.331529161
     0.831404894  0.995285466  0.996891476
     0.832943261  0.333596715  0.337155498
     0.832017345  0.675165165  0.997065432
     0.833106961  0.670421987  0.672828574
     0.000156985  0.997990746  0.167495472
     0.992160022  0.336834232  0.832232435
     0.011497597  0.663957721  0.832698428
     0.334620190  0.999434584  0.835416613
     0.333664230  0.337383044  0.498838169
     0.328757209  0.671372180  0.833864939
     0.667830145  0.997850569  0.501307876
     0.664369915  0.331903692  0.166358703
     0.669798272  0.669896126  0.499988754
     0.998596099  0.164854305  0.998971496
     0.005426791  0.504022497  0.326353369
     0.997301596  0.500388583  0.658078330
     0.008664405  0.833843315  0.999447364
     0.989787733  0.829677017  0.337719838
     0.004091090  0.833011755  0.663417631
     0.338688748  0.165463472  0.006644412
     0.340370945  0.165891984  0.665019578
     0.326140364  0.501873384  0.324824233
     0.339093780  0.500497275  0.671001589
     0.333255087  0.834830247  0.006203517
     0.336503882  0.832316926  0.339567210
     0.664313207  0.164976451  0.994949121
     0.660398120  0.165045578  0.335839793
     0.673166398  0.166036279  0.668270015
     0.668167480  0.500236641  0.335470776
     0.657727713  0.835279957  0.006080378
     0.657890072  0.835196362  0.672975533
     0.167891793  0.004279662  0.000642819
     0.165611753  0.341767712  0.326665051
     0.167072488  0.671654645  0.010791467
     0.164672512  0.673466886  0.335532007
     0.165782811  0.661432167  0.654127821
     0.501412167  0.000236143  0.005092828
     0.499399920  0.996810981  0.327368711
     0.501715478  0.005816530  0.668455882
     0.500439536  0.326733214  0.994379263
     0.500565336  0.340206949  0.333988417
     0.501374661  0.327110628  0.670919664
     0.499726144  0.673099984  0.007579489
     0.499255940  0.665907549  0.663461811
     0.832135470  0.004988423  0.329909894
     0.830934870  0.990076057  0.676598893
     0.832490528  0.323788510  0.003544572
     0.831321302  0.335897333  0.654438607
     0.837098303  0.658235051  0.328675674
     0.985072062  0.989573120  0.499761907
     0.004138994  0.997278756  0.834821327
     0.997995952  0.327774609  0.167174417
     0.006083142  0.344794743  0.498366054
     0.002431646  0.676452992  0.170580017
     0.997987539  0.664782201  0.495798983
     0.331892946  0.994816362  0.165736342
     0.347423688  0.003680681  0.499308718
     0.340395298  0.334712935  0.167450066
     0.341041205  0.328201677  0.832736390
     0.327931915  0.673333959  0.168375916
     0.331078587  0.656943449  0.498190984
     0.666394703  0.009170484  0.165836976
     0.659533530  0.998898154  0.833191909
     0.658066579  0.330273467  0.500160433
     0.673062714  0.324389802  0.832356799
     0.669213987  0.661227246  0.167967490
     0.654420429  0.675646394  0.833838047

  ion indices of the primitive-cell ions
   primitive index   ion index
                 1           1
                 2           2
                 3           3
                 4           4
                 5           5
                 6           6
                 7           7
                 8           8
                 9           9
                10          10
                11          11
                12          12
                13          13
                14          14
                15          15
                16          16
                17          17
                18          18
                19          19
                20          20
                21          21
                22          22
                23          23
                24          24
                25          25
                26          26
                27          27
                28          28
                29          29
                30          30
                31          31
                32          32
                33          33
                34          34
                35          35
                36          36
                37          37
                38          38
                39          39
                40          40
                41          41
                42          42
                43          43
                44          44
                45          45
                46          46
                47          47
                48          48
                49          49
                50          50
                51          51
                52          52
                53          53
                54          54
                55          55
                56          56
                57          57
                58          58
                59          59
                60          60
                61          61
                62          62
                63          63
                64          64
                65          65
                66          66
                67          67
                68          68
                69          69
                70          70
                71          71
                72          72
                73          73
                74          74
                75          75
                76          76
                77          77
                78          78
                79          79
                80          80
                81          81
                82          82
                83          83
                84          84
                85          85
                86          86
                87          87
                88          88
                89          89
                90          90
                91          91
                92          92
                93          93
                94          94
                95          95
                96          96
                97          97
                98          98
                99          99
               100         100
               101         101
               102         102
               103         103
               104         104
               105         105
               106         106
               107         107
               108         108

----------------------------------------------------------------------------------------

 
 
 KPOINTS: Title                                   

Automatic generation of k-mesh.
 Grid dimensions read from file:
 generate k-points for:    3    3    3

 Generating k-lattice:

  Cartesian coordinates                     Fractional coordinates (reciprocal lattice)
     0.028772580  0.000015773  0.000038309     0.333333333 -0.000000000  0.000000000
     0.000015834  0.028751936  0.000000960     0.000000000  0.333333333 -0.000000000
     0.000038338  0.000000907  0.028779319    -0.000000000  0.000000000  0.333333333

  Length of vectors
     0.028772609  0.028751941  0.028779345

  Shift w.r.t. Gamma in fractional coordinates (k-lattice)
     0.000000000  0.000000000  0.000000000

 
 Subroutine IBZKPT returns following result:
 ===========================================
 
 Found     14 irreducible k-points:
 
 Following reciprocal coordinates:
            Coordinates               Weight
  0.000000  0.000000  0.000000      1.000000
  0.333333 -0.000000  0.000000      2.000000
  0.000000  0.333333  0.000000      2.000000
  0.333333  0.333333  0.000000      2.000000
 -0.333333  0.333333 -0.000000      2.000000
  0.000000 -0.000000  0.333333      2.000000
  0.333333 -0.000000  0.333333      2.000000
 -0.333333  0.000000  0.333333      2.000000
  0.000000  0.333333  0.333333      2.000000
  0.333333  0.333333  0.333333      2.000000
 -0.333333  0.333333  0.333333      2.000000
  0.000000 -0.333333  0.333333      2.000000
  0.333333 -0.333333  0.333333      2.000000
 -0.333333 -0.333333  0.333333      2.000000
 
 Following cartesian coordinates:
            Coordinates               Weight
  0.000000  0.000000  0.000000      1.000000
  0.028773  0.000016  0.000038      2.000000
  0.000016  0.028752  0.000001      2.000000
  0.028788  0.028768  0.000039      2.000000
 -0.028757  0.028736 -0.000037      2.000000
  0.000038  0.000001  0.028779      2.000000
  0.028811  0.000017  0.028818      2.000000
 -0.028734 -0.000015  0.028741      2.000000
  0.000054  0.028753  0.028780      2.000000
  0.028827  0.028769  0.028819      2.000000
 -0.028718  0.028737  0.028742      2.000000
  0.000023 -0.028751  0.028778      2.000000
  0.028795 -0.028735  0.028817      2.000000
 -0.028750 -0.028767  0.028740      2.000000
 


--------------------------------------------------------------------------------------------------------




 Dimension of arrays:
   k-points           NKPTS =     14   k-points in BZ     NKDIM =     14   number of bands    NBANDS=    540
   number of dos      NEDOS =   3001   number of ions     NIONS =    108
   non local maximal  LDIM  =      6   non local SUM 2l+1 LMDIM =     18
   total plane-waves  NPLWV = ******
   max r-space proj   IRMAX =   8919   max aug-charges    IRDMAX= 199832
   dimension x,y,z NGX =   100 NGY =  100 NGZ =  100
   dimension x,y,z NGXF=   200 NGYF=  200 NGZF=  200
   support grid    NGXF=   400 NGYF=  400 NGZF=  400
   ions per type =              27  27  54
   NGX,Y,Z   is equivalent  to a cutoff of  14.35, 14.34, 14.35 a.u.
   NGXF,Y,Z  is equivalent  to a cutoff of  28.70, 28.68, 28.71 a.u.

 SYSTEM =  LTO                                     
 POSCAR =  Ti27 O27 F54                            

 Startparameter for this run:
   NWRITE =      2    write-flag & timer
   PREC   = accura    normal or accurate (medium, high low for compatibility)
   ISTART =      1    job   : 0-new  1-cont  2-samecut
   ICHARG =      0    charge: 1-file 2-atom 10-const
   ISPIN  =      2    spin polarized calculation?
   LNONCOLLINEAR =      F non collinear calculations
   LSORBIT =      F    spin-orbit coupling
   INIWAV =      1    electr: 0-lowe 1-rand  2-diag
   LASPH  =      T    aspherical Exc in radial PAW
 Electronic Relaxation 1
   ENCUT  =  700.0 eV  51.45 Ry    7.17 a.u.  24.99 25.01 24.99*2*pi/ulx,y,z
   ENINI  =  700.0     initial cutoff
   ENAUG  =  613.6 eV  augmentation charge cutoff
   NELM   =     60;   NELMIN=  2; NELMDL=  0     # of ELM steps 
   EDIFF  = 0.1E-05   stopping-criterion for ELM
   LREAL  =      T    real-space projection
   NLSPLINE    = F    spline interpolate recip. space projectors
   LCOMPAT=      F    compatible to vasp.4.4
   GGA_COMPAT  = T    GGA compatible to vasp.4.4-vasp.4.6
   LMAXPAW     = -100 max onsite density
   LMAXMIX     =    4 max onsite mixed and CHGCAR
   VOSKOWN=      0    Vosko Wilk Nusair interpolation
   ROPT   =   -0.00010  -0.00010  -0.00010
 Ionic relaxation
   EDIFFG = -.1E-01   stopping-criterion for IOM
   NSW    =    100    number of steps for IOM
   NBLOCK =      1;   KBLOCK =    100    inner block; outer block 
   IBRION =      1    ionic relax: 0-MD 1-quasi-New 2-CG
   NFREE  =      0    steps in history (QN), initial steepest desc. (CG)
   ISIF   =      3    stress and relaxation
   IWAVPR =     11    prediction:  0-non 1-charg 2-wave 3-comb
   ISYM   =      0    0-nonsym 1-usesym 2-fastsym
   LCORR  =      T    Harris-Foulkes like correction to forces

   POTIM  = 0.5000    time-step for ionic-motion
   TEIN   =    0.0    initial temperature
   TEBEG  =    0.0;   TEEND  =   0.0 temperature during run
   SMASS  =  -3.00    Nose mass-parameter (am)
   estimated Nose-frequenzy (Omega)   =  0.10E-29 period in steps = 0.13E+47 mass=  -0.307E-26a.u.
   SCALEE = 1.0000    scale energy and forces
   NPACO  =    256;   APACO  = 10.0  distance and # of slots for P.C.
   PSTRESS=    0.0 pullay stress

  Mass of Ions in am
   POMASS =  47.88 16.00 19.00
  Ionic Valenz
   ZVAL   =  10.00  6.00  7.00
  Atomic Wigner-Seitz radii
   RWIGS  =  -1.00 -1.00 -1.00
  virtual crystal weights 
   VCA    =   1.00  1.00  1.00
   NELECT =     810.0000    total number of electrons
   NUPDOWN=      -1.0000    fix difference up-down

 DOS related values:
   EMIN   =  10.00;   EMAX   =-10.00  energy-range for DOS
   EFERMI =   0.00
   ISMEAR =     0;   SIGMA  =   0.01  broadening in eV -4-tet -1-fermi 0-gaus

 Electronic relaxation 2 (details)
   IALGO  =     38    algorithm
   LDIAG  =      T    sub-space diagonalisation (order eigenvalues)
   LSUBROT=      F    optimize rotation matrix (better conditioning)
   TURBO    =      0    0=normal 1=particle mesh
   IRESTART =      0    0=no restart 2=restart with 2 vectors
   NREBOOT  =      0    no. of reboots
   NMIN     =      0    reboot dimension
   EREF     =   0.00    reference energy to select bands
   IMIX   =      4    mixing-type and parameters
     AMIX     =   0.40;   BMIX     =  1.00
     AMIX_MAG =   1.60;   BMIX_MAG =  1.00
     AMIN     =   0.10
     WC   =   100.;   INIMIX=   1;  MIXPRE=   1;  MAXMIX= -45

 Intra band minimization:
   WEIMIN = 0.0010     energy-eigenvalue tresh-hold
   EBREAK =  0.46E-09  absolut break condition
   DEPER  =   0.30     relativ break condition  

   TIME   =   0.40     timestep for ELM

  volume/ion in A,a.u.               =      14.40        97.20
  Fermi-wavevector in a.u.,A,eV,Ry     =   1.317042  2.488848 23.600658  1.734599
  Thomas-Fermi vector in A             =   2.447111
 
 Write flags
   LWAVE        =      T    write WAVECAR
   LDOWNSAMPLE  =      F    k-point downsampling of WAVECAR
   LCHARG       =      T    write CHGCAR
   LVTOT        =      F    write LOCPOT, total local potential
   LVHAR        =      F    write LOCPOT, Hartree potential only
   LELF         =      F    write electronic localiz. function (ELF)
   LORBIT       =     11    0 simple, 1 ext, 2 COOP (PROOUT), +10 PAW based schemes


 Dipole corrections
   LMONO  =      F    monopole corrections only (constant potential shift)
   LDIPOL =      F    correct potential (dipole corrections)
   IDIPOL =      0    1-x, 2-y, 3-z, 4-all directions 
   EPSILON=  1.0000000 bulk dielectric constant

 LDA+U is selected, type is set to LDAUTYPE =  2
   angular momentum for each species LDAUL =     2   -1   -1
   U (eV)           for each species LDAUU =   4.2  0.0  0.0
   J (eV)           for each species LDAUJ =   0.0  0.0  0.0
 Exchange correlation treatment:
   GGA     =    PS    GGA type
   LEXCH   =    14    internal setting for exchange type
   LIBXC   =     F    Libxc                    
   VOSKOWN =     0    Vosko Wilk Nusair interpolation
   LHFCALC =     F    Hartree Fock is set to
   LHFONE  =     F    Hartree Fock one center treatment
   AEXX    =    0.0000 exact exchange contribution

 Linear response parameters
   LEPSILON=     F    determine dielectric tensor
   LRPA    =     F    only Hartree local field effects (RPA)
   LNABLA  =     F    use nabla operator in PAW spheres
   LVEL    =     F    velocity operator in full k-point grid
   CSHIFT  =0.1000    complex shift for real part using Kramers Kronig
   OMEGAMAX=  -1.0    maximum frequency
   DEG_THRESHOLD= 0.2000000E-02 threshold for treating states as degnerate
   RTIME   =   -0.100 relaxation time in fs
  (WPLASMAI=    0.000 imaginary part of plasma frequency in eV, 0.658/RTIME)
   DFIELD  = 0.0000000 0.0000000 0.0000000 field for delta impulse in time
 
  Optional k-point grid parameters
   LKPOINTS_OPT  =     F    use optional k-point grid
   KPOINTS_OPT_MODE=     1    mode for optional k-point grid
 
 Orbital magnetization related:
   ORBITALMAG=     F  switch on orbital magnetization
   LCHIMAG   =     F  perturbation theory with respect to B field
   DQ        =  0.001000  dq finite difference perturbation B field
   LLRAUG    =     F  two centre corrections for induced B field



--------------------------------------------------------------------------------------------------------


 quasi-Newton-method for relaxation of ions
 charge density and potential will be updated during run
 spin polarized calculation
 Variant of blocked Davidson
 Davidson routine will perform the subspace rotation
 perform sub-space diagonalisation
    after iterative eigenvector-optimisation
 modified Broyden-mixing scheme, WC =      100.0
 initial mixing is a Kerker type mixing with AMIX =  0.4000 and BMIX =      1.0000
 Hartree-type preconditioning will be used
 using additional bands          135
 real space projection scheme for non local part
 use partial core corrections
 calculate Harris-corrections to forces 
   (improved forces if not selfconsistent)
 use gradient corrections 
 use of overlap-Matrix (Vanderbilt PP)
 Gauss-broadening in eV      SIGMA  =   0.01


--------------------------------------------------------------------------------------------------------


  energy-cutoff  :      700.00
  volume of cell :     1555.65
      direct lattice vectors                 reciprocal lattice vectors
    11.585128241 -0.006379360 -0.015432762     0.086317739  0.000047319  0.000114927
    -0.006355053 11.593425593 -0.000357038     0.000047501  0.086255809  0.000002879
    -0.015421112 -0.000378096 11.582411676     0.000115014  0.000002722  0.086337958

  length of vectors
    11.585140277 11.593427341 11.582421948     0.086317828  0.086255822  0.086338035


 
 old parameters found on file WAVECAR:
  energy-cutoff  :      700.00
  volume of cell :     1555.34
      direct lattice vectors                 reciprocal lattice vectors
    11.584366730 -0.006286651 -0.015240393     0.086323409  0.000046634  0.000113507
    -0.006262192 11.592624599 -0.000282738     0.000046816  0.086261768  0.000002325
    -0.015228710 -0.000303915 11.581700087     0.000113594  0.000002167  0.086343259

  length of vectors

 
 k-points in units of 2pi/SCALE and weight: Title                                   
   0.00000000  0.00000000  0.00000000       0.037
   0.02877258  0.00001577  0.00003831       0.074
   0.00001583  0.02875194  0.00000096       0.074
   0.02878841  0.02876771  0.00003927       0.074
  -0.02875675  0.02873616 -0.00003735       0.074
   0.00003834  0.00000091  0.02877932       0.074
   0.02881092  0.00001668  0.02881763       0.074
  -0.02873424 -0.00001487  0.02874101       0.074
   0.00005417  0.02875284  0.02878028       0.074
   0.02882675  0.02876862  0.02881859       0.074
  -0.02871841  0.02873707  0.02874197       0.074
   0.00002250 -0.02875103  0.02877836       0.074
   0.02879508 -0.02873526  0.02881667       0.074
  -0.02875008 -0.02876680  0.02874005       0.074
 
 k-points in reciprocal lattice and weights: Title                                   
   0.00000000  0.00000000  0.00000000       0.037
   0.33333333 -0.00000000  0.00000000       0.074
   0.00000000  0.33333333  0.00000000       0.074
   0.33333333  0.33333333  0.00000000       0.074
  -0.33333333  0.33333333 -0.00000000       0.074
   0.00000000 -0.00000000  0.33333333       0.074
   0.33333333 -0.00000000  0.33333333       0.074
  -0.33333333  0.00000000  0.33333333       0.074
   0.00000000  0.33333333  0.33333333       0.074
   0.33333333  0.33333333  0.33333333       0.074
  -0.33333333  0.33333333  0.33333333       0.074
   0.00000000 -0.33333333  0.33333333       0.074
   0.33333333 -0.33333333  0.33333333       0.074
  -0.33333333 -0.33333333  0.33333333       0.074
 
 position of ions in fractional coordinates (direct lattice) 
   0.99331274  0.99916273  0.01276238
   0.00960388  0.00956296  0.32798504
   0.00953340  0.01143434  0.66655257
   0.00796116  0.34349687  0.98969273
   0.99088694  0.32097085  0.33398660
   0.00779194  0.32479878  0.67640144
   0.99228301  0.65613565  0.99037097
   0.00111685  0.66681933  0.33317220
   0.99070193  0.66659987  0.67977445
   0.33513985  0.00014457  0.98746934
   0.32204971  0.01061581  0.33272205
   0.32294570  0.99120366  0.67137860
   0.32254718  0.34296533  0.00002180
   0.33301805  0.32434285  0.34331440
   0.32188097  0.33334755  0.65784704
   0.33330098  0.65679119  0.99035531
   0.34750450  0.66655226  0.33311212
   0.33248854  0.67767971  0.67635179
   0.67879166  0.99994083  0.99874147
   0.66630120  0.98785101  0.33981378
   0.66639983  0.00067366  0.65464085
   0.66625462  0.34358347  0.00912921
   0.67642673  0.33220113  0.32289450
   0.66599031  0.34650678  0.66670514
   0.67798393  0.65738580  0.99973361
   0.66018915  0.67442841  0.34406947
   0.67619126  0.66076914  0.65897443
   0.00493081  0.16688996  0.34168829
   0.99170808  0.16531358  0.66113142
   0.99758590  0.50087059  0.00935370
   0.33068992  0.16728531  0.33043088
   0.33610637  0.50109422  0.00056174
   0.33395726  0.83288672  0.65937686
   0.66683514  0.49924616  0.99353085
   0.66400807  0.49826569  0.67140393
   0.67125587  0.83390743  0.32647485
   0.16715636  0.99102173  0.34140622
   0.16665435  0.00413920  0.65914389
   0.16866179  0.32952240  0.99887655
   0.16823560  0.33200748  0.67031619
   0.49864199  0.66359129  0.33152916
   0.83140489  0.99528547  0.99689148
   0.83294326  0.33359671  0.33715550
   0.83201734  0.67516517  0.99706543
   0.83310696  0.67042199  0.67282857
   0.00015699  0.99799075  0.16749547
   0.99216002  0.33683423  0.83223243
   0.01149760  0.66395772  0.83269843
   0.33462019  0.99943458  0.83541661
   0.33366423  0.33738304  0.49883817
   0.32875721  0.67137218  0.83386494
   0.66783014  0.99785057  0.50130788
   0.66436992  0.33190369  0.16635870
   0.66979827  0.66989613  0.49998875
   0.99859610  0.16485431  0.99897150
   0.00542679  0.50402250  0.32635337
   0.99730160  0.50038858  0.65807833
   0.00866440  0.83384331  0.99944736
   0.98978773  0.82967702  0.33771984
   0.00409109  0.83301175  0.66341763
   0.33868875  0.16546347  0.00664441
   0.34037095  0.16589198  0.66501958
   0.32614036  0.50187338  0.32482423
   0.33909378  0.50049728  0.67100159
   0.33325509  0.83483025  0.00620352
   0.33650388  0.83231693  0.33956721
   0.66431321  0.16497645  0.99494912
   0.66039812  0.16504558  0.33583979
   0.67316640  0.16603628  0.66827002
   0.66816748  0.50023664  0.33547078
   0.65772771  0.83527996  0.00608038
   0.65789007  0.83519636  0.67297553
   0.16789179  0.00427966  0.00064282
   0.16561175  0.34176771  0.32666505
   0.16707249  0.67165464  0.01079147
   0.16467251  0.67346689  0.33553201
   0.16578281  0.66143217  0.65412782
   0.50141217  0.00023614  0.00509283
   0.49939992  0.99681098  0.32736871
   0.50171548  0.00581653  0.66845588
   0.50043954  0.32673321  0.99437926
   0.50056534  0.34020695  0.33398842
   0.50137466  0.32711063  0.67091966
   0.49972614  0.67309998  0.00757949
   0.49925594  0.66590755  0.66346181
   0.83213547  0.00498842  0.32990989
   0.83093487  0.99007606  0.67659889
   0.83249053  0.32378851  0.00354457
   0.83132130  0.33589733  0.65443861
   0.83709830  0.65823505  0.32867567
   0.98507206  0.98957312  0.49976191
   0.00413899  0.99727876  0.83482133
   0.99799595  0.32777461  0.16717442
   0.00608314  0.34479474  0.49836605
   0.00243165  0.67645299  0.17058002
   0.99798754  0.66478220  0.49579898
   0.33189295  0.99481636  0.16573634
   0.34742369  0.00368068  0.49930872
   0.34039530  0.33471293  0.16745007
   0.34104120  0.32820168  0.83273639
   0.32793191  0.67333396  0.16837592
   0.33107859  0.65694345  0.49819098
   0.66639470  0.00917048  0.16583698
   0.65953353  0.99889815  0.83319191
   0.65806658  0.33027347  0.50016043
   0.67306271  0.32438980  0.83235680
   0.66921399  0.66122725  0.16796749
   0.65442043  0.67564639  0.83383805
 
 position of ions in cartesian coordinates  (Angst):
  11.50110889 11.57737726  0.13213289
   0.10614348  0.11068215  3.79870615
   0.10009403  0.13225030  7.72013510
   0.07478595  3.98188042 11.46278307
  11.47236203  3.71470415  3.85296363
   0.07777564  3.76522499  7.83412377
  11.47628350  7.60015521 11.45533630
   0.00356334  7.73058717  3.85868223
  11.46268978  7.72159893  7.85790021
   3.86740936 -0.00083522 11.43210421
   3.72578873  0.12089339  3.84874985
   3.72471484 11.48913189  7.77084552
   3.73457055  3.97408542 -0.00484779
   3.85070136  3.75799045  3.97115352
   3.71676909  3.86233795  7.61436875
   3.84188824  7.61195906 11.46532465
   4.01651123  7.72528121  3.85264079
   3.83718556  7.85425246  7.82841174
   7.84213204 11.58803170 11.55700227
   7.70766674 11.44819812  3.92522749
   7.71022797  0.00331129  7.57203515
   7.71632089  3.97905570  0.09533345
   7.82939986  3.84691180  3.72933927
   7.70309980  4.01269984  7.71165156
   7.83493599  7.61665027 11.56862833
   7.63878405  7.81459393  3.97472493
   7.81940111  7.65601505  7.62184171
   0.05079430  1.93466568  3.95743879
  11.47781937  1.90997425  7.64213249
  11.55383326  5.80043839  0.09276404
   3.82492638  1.93717522  3.82202332
   3.89064226  5.80725417  0.00114030
   3.85347638  9.65363043  7.63172295
   7.70687657  5.78334359 11.49701400
   7.67909833  5.77211644  7.76605132
   7.76625125  9.66343810  3.77070902
   1.92496506 11.48814121  3.95137382
   1.92052098  0.04667519  7.63190247
   1.93647055  3.81883981 11.56667880
   1.93658401  3.84777739  7.76116313
   5.76750164  7.68998990  3.83197487
   9.61023405 11.53308725 11.53322124
   9.64243516  3.86208757  3.89210005
   9.61936107  7.82179238 11.53534092
   9.63701465  7.76691834  7.77988102
  -0.00710656 11.57006712  1.93964277
  11.47932654  3.89841859  9.62382664
   0.11614051  7.69715625  9.64424150
   3.85738330 11.58441995  9.67061818
   3.85570617  3.90910805  5.77247921
   3.79156870  7.78109087  9.65285367
   7.72282575 11.56405645  5.79569146
   7.69213597  3.84359960  1.91646341
   7.74773127  7.76192897  5.78049956
  11.55241096  1.90447801 11.55502917
   0.05463424  5.84318930  3.77969537
  11.54053859  5.79460684  7.60656436
   0.07966653  9.66666726 11.57557939
  11.45633716  9.61235686  3.89603881
   0.03187134  9.65718286  7.68361556
   3.92259858  1.91612532  0.07167234
   3.93193145  1.92083359  7.69721843
   3.77017935  5.81622835  3.75703556
   3.91491665  5.80006102  7.76640479
   3.85540186  9.67641406  0.06641057
   3.88791471  9.64712928  3.92751686
   7.67976204  1.90802813 11.51359922
   7.64456901  1.90910373  3.87958404
   7.78735842  1.92038221  7.72973033
   7.73245358  5.79506695  3.87507036
   7.61445789  9.67955785  0.05997666
   7.60605511  9.67833552  7.78422842
   1.94501084  0.04854465  0.00485283
   1.91142391  3.96107853  3.78089123
   1.93112139  7.78570825  0.12217302
   1.89829797  7.80661087  3.88348803
   1.90632432  7.66695970  7.57358306
   5.80884422 -0.00046291  0.05124897
   5.77422894 11.55314430  3.78365616
   5.80209285  0.06398015  7.73458628
   5.78024536  3.78438875 11.50947016
   5.79180110  3.94084438  3.86054476
   5.79606461  3.78888061  7.76301337
   5.78499700  7.80034379  0.07983629
   5.76948089  7.71671384  7.67654517
   9.63527685  0.05239968  3.80830828
   9.60976113 11.47281644  7.82346980
   9.64239717  3.74850591  0.02809146
   9.61873707  3.88864999  7.56702785
   9.68863953  7.62573466  3.79370321
  11.39819049 11.46606925  5.77289245
   0.02873914 11.56153500  9.66882434
  11.55725005  3.79360076  1.92076406
   0.06059744  3.99712496  5.77206382
   0.02124151  7.84232743  1.97544893
  11.54994313  7.70054900  5.72690887
   3.83614439 11.53114954  1.91414933
   4.01722469  0.04026658  5.77783611
   3.93881379  3.87823469  1.93410286
   3.93607863  3.80249125  9.63971529
   3.79225767  7.80409149  1.94489787
   3.82373032  7.61392457  5.76490906
   7.71765243  0.10200345  1.91050454
   7.62158373 11.57612900  9.63983662
   7.61397377  3.82461371  5.78279034
   7.78262047  3.75618061  9.63019607
   7.74613748  7.66155621  1.93490471
   7.56439211  7.82856614  9.64751479
 


--------------------------------------------------------------------------------------------------------


 k-point   1 :   0.0000 0.0000 0.0000  plane waves:   65239
 k-point   2 :   0.3333-0.0000 0.0000  plane waves:   65363
 k-point   3 :   0.0000 0.3333 0.0000  plane waves:   65370
 k-point   4 :   0.3333 0.3333 0.0000  plane waves:   65436
 k-point   5 :  -0.3333 0.3333-0.0000  plane waves:   65411
 k-point   6 :   0.0000-0.0000 0.3333  plane waves:   65362
 k-point   7 :   0.3333-0.0000 0.3333  plane waves:   65427
 k-point   8 :  -0.3333 0.0000 0.3333  plane waves:   65384
 k-point   9 :   0.0000 0.3333 0.3333  plane waves:   65420
 k-point  10 :   0.3333 0.3333 0.3333  plane waves:   65483
 k-point  11 :  -0.3333 0.3333 0.3333  plane waves:   65444
 k-point  12 :   0.0000-0.3333 0.3333  plane waves:   65413
 k-point  13 :   0.3333-0.3333 0.3333  plane waves:   65460
 k-point  14 :  -0.3333-0.3333 0.3333  plane waves:   65456

 maximum and minimum number of plane-waves per node :      8244     8098

 maximum number of plane-waves:     65483
 maximum index in each direction: 
   IXMAX=   25   IYMAX=   25   IZMAX=   24
   IXMIN=  -25   IYMIN=  -25   IZMIN=  -25


 real space projection operators:
  total allocation   :      54100.53 KBytes
  max/ min on nodes  :       7376.50       6167.73


 parallel 3D FFT for wavefunctions:
    minimum data exchange during FFTs selected (reduces bandwidth)
 parallel 3D FFT for charge:
    minimum data exchange during FFTs selected (reduces bandwidth)


 total amount of memory used by VASP MPI-rank0   297697. kBytes
=======================================================================

   base      :      30000. kBytes
   nonlr-proj:      25298. kBytes
   fftplans  :      18873. kBytes
   grid      :      21088. kBytes
   one-center:        435. kBytes
   wavefun   :     202003. kBytes
 
     INWAV:  cpu time     34.4697: real time     34.5780
 Broyden mixing: mesh for mixing (old mesh)
   NGX = 49   NGY = 51   NGZ = 49
  (NGX  =200   NGY  =200   NGZ  =200)
  gives a total of 122451 points

 charge density for first step will be calculated from the start-wavefunctions


--------------------------------------------------------------------------------------------------------


 Maximum index for non-local projection operator         1366
 Maximum index for augmentation-charges         4051 (set IRDMAX)


--------------------------------------------------------------------------------------------------------


 initial charge from wavefunction
 First call to EWALD:  gamma=   0.153
 Maximum number of real-space cells 3x 3x 3
 Maximum number of reciprocal cells 3x 3x 3

    FEWALD:  cpu time      0.0053: real time      0.0053


--------------------------------------- Iteration      1(   1)  ---------------------------------------


    POTLOK:  cpu time      0.1574: real time      0.1625
    SETDIJ:  cpu time      0.8831: real time      0.8883
     EDDAV:  cpu time     89.2024: real time     89.4827
       DOS:  cpu time      0.0119: real time      0.0119
    CHARGE:  cpu time      3.9960: real time      4.0059
    MIXING:  cpu time      0.0067: real time      0.0069
    --------------------------------------------
      LOOP:  cpu time     94.2575: real time     94.5582

 eigenvalue-minimisations  : 30680
 total energy-change (2. order) :-0.7212790E+03  (-0.7801127E-03)
 number of electron     810.0000011 magnetization       0.0000000
 augmentation part      209.1299540 magnetization      -0.0000000

 Broyden mixing:
  rms(total) = 0.50296E-03    rms(broyden)= 0.49693E-03
  rms(prec ) = 0.68148E-03
  weight for this iteration     100.00

 Free energy of the ion-electron system (eV)
  ---------------------------------------------------
  alpha Z        PSCENC =      2563.95818581
  Ewald energy   TEWEN  =    -43309.97553219
  -Hartree energ DENC   =    -27717.66881207
  -exchange      EXHF   =         0.00000000
  -V(xc)+E(xc)   XCENC  =      3779.51606099
  PAW double counting   =     60872.70321575   -61288.33819667
  entropy T*S    EENTRO =        -0.00000000
  eigenvalues    EBANDS =    -10891.91598126
  atomic energy  EATOM  =     75270.44210491
  Solvation  Ediel_sol  =         0.00000000
  ---------------------------------------------------
  free energy    TOTEN  =      -721.27895473 eV

  energy without entropy =     -721.27895473  energy(sigma->0) =     -721.27895473


--------------------------------------------------------------------------------------------------------




--------------------------------------- Iteration      1(   2)  ---------------------------------------


    POTLOK:  cpu time      0.1729: real time      0.1750
    SETDIJ:  cpu time      0.9121: real time      0.9145
     EDDAV:  cpu time     89.2646: real time     89.4919
       DOS:  cpu time      0.0033: real time      0.0033
    --------------------------------------------
      LOOP:  cpu time     90.3529: real time     90.5847

 eigenvalue-minimisations  : 30680
 total energy-change (2. order) : 0.2932939E-06  (-0.3665155E-06)
 number of electron     810.0000011 magnetization       0.0000000
 augmentation part      209.1299540 magnetization      -0.0000000

 Free energy of the ion-electron system (eV)
  ---------------------------------------------------
  alpha Z        PSCENC =      2563.95818581
  Ewald energy   TEWEN  =    -43309.97553219
  -Hartree energ DENC   =    -27717.68895732
  -exchange      EXHF   =         0.00000000
  -V(xc)+E(xc)   XCENC  =      3779.51706896
  PAW double counting   =     60872.74080239   -61288.37515005
  entropy T*S    EENTRO =        -0.00000000
  eigenvalues    EBANDS =    -10891.89747693
  atomic energy  EATOM  =     75270.44210491
  Solvation  Ediel_sol  =         0.00000000
  ---------------------------------------------------
  free energy    TOTEN  =      -721.27895443 eV

  energy without entropy =     -721.27895443  energy(sigma->0) =     -721.27895443


--------------------------------------------------------------------------------------------------------




 average (electrostatic) potential at core
  the test charge radii are     1.0397  0.7215  0.7167
  (the norm of the test charge is              1.0000)
       1 -58.9381       2 -58.5607       3 -58.6267       4 -58.2868       5 -58.7519
       6 -58.3147       7 -58.3287       8 -60.3570       9 -58.6145      10 -59.1939
      11 -58.7797      12 -58.5528      13 -58.6243      14 -58.7594      15 -58.6398
      16 -58.7337      17 -59.2490      18 -58.7402      19 -59.3441      20 -59.0098
      21 -59.3652      22 -58.7823      23 -58.8247      24 -59.1638      25 -58.7156
      26 -58.6427      27 -58.5663      28 -74.2004      29 -73.9097      30 -73.8178
      31 -74.1578      32 -74.0706      33 -74.0182      34 -74.1322      35 -74.3267
      36 -74.2269      37 -74.1001      38 -74.0433      39 -73.9138      40 -73.9654
      41 -74.5077      42 -74.4635      43 -74.1180      44 -73.9715      45 -74.0051
      46 -74.1395      47 -73.7913      48 -74.0730      49 -74.3001      50 -74.0424
      51 -74.1265      52 -74.4935      53 -74.1581      54 -74.0544      55 -78.8255
      56 -79.5082      57 -78.7594      58 -78.8460      59 -79.5106      60 -78.7724
      61 -79.0239      62 -78.7802      63 -79.1119      64 -78.7940      65 -78.9967
      66 -79.1053      67 -79.0895      68 -78.9386      69 -79.1130      70 -78.9723
      71 -79.1019      72 -79.1363      73 -79.1558      74 -78.8795      75 -78.8119
      76 -79.5871      77 -78.8478      78 -79.1278      79 -78.9957      80 -79.0670
      81 -78.7999      82 -78.8881      83 -78.9613      84 -78.8041      85 -78.8294
      86 -78.9942      87 -79.0861      88 -78.7950      89 -78.9717      90 -79.5960
      91 -78.8782      92 -78.8043      93 -78.7761      94 -78.7760      95 -79.5066
      96 -79.4941      97 -78.9159      98 -78.9664      99 -78.8200     100 -78.7999
     101 -79.1042     102 -79.0946     103 -79.2359     104 -79.1944     105 -79.0286
     106 -79.0424     107 -78.8633     108 -78.8500
 
 
 
 E-fermi :  -0.8523     XC(G=0):  -8.9959     alpha+bet : -7.6661

 Fermi energy:        -0.8522998275

 spin component 1

 k-point     1 :       0.0000    0.0000    0.0000
  band No.  band energies     occupation 
      1     -36.2272      1.00000
      2     -36.2209      1.00000
      3     -36.2189      1.00000
      4     -35.3094      1.00000
      5     -35.3028      1.00000
      6     -35.2970      1.00000
      7     -35.2944      1.00000
      8     -35.2133      1.00000
      9     -35.2071      1.00000
     10     -35.1919      1.00000
     11     -35.1808      1.00000
     12     -35.1476      1.00000
     13     -35.1448      1.00000
     14     -35.1222      1.00000
     15     -35.1201      1.00000
     16     -35.1166      1.00000
     17     -35.0128      1.00000
     18     -35.0006      1.00000
     19     -34.9868      1.00000
     20     -34.9048      1.00000
     21     -34.8945      1.00000
     22     -34.8600      1.00000
     23     -34.8262      1.00000
     24     -34.7990      1.00000
     25     -34.7776      1.00000
     26     -34.7616      1.00000
     27     -34.7518      1.00000
     28     -34.7418      1.00000
     29     -34.7324      1.00000
     30     -34.7235      1.00000
     31     -34.7212      1.00000
     32     -34.7133      1.00000
     33     -34.7032      1.00000
     34     -34.6993      1.00000
     35     -34.6964      1.00000
     36     -34.6811      1.00000
     37     -34.6748      1.00000
     38     -34.6641      1.00000
     39     -34.6632      1.00000
     40     -34.6442      1.00000
     41     -34.6419      1.00000
     42     -34.6356      1.00000
     43     -34.6225      1.00000
     44     -34.6180      1.00000
     45     -34.6157      1.00000
     46     -34.6084      1.00000
     47     -34.6065      1.00000
     48     -34.6051      1.00000
     49     -34.6011      1.00000
     50     -34.5995      1.00000
     51     -34.5987      1.00000
     52     -34.5828      1.00000
     53     -34.5652      1.00000
     54     -34.5549      1.00000
     55     -34.5467      1.00000
     56     -34.5431      1.00000
     57     -34.5354      1.00000
     58     -34.5338      1.00000
     59     -34.5212      1.00000
     60     -34.5146      1.00000
     61     -34.5054      1.00000
     62     -34.4966      1.00000
     63     -34.4946      1.00000
     64     -34.4910      1.00000
     65     -34.4867      1.00000
     66     -34.4780      1.00000
     67     -34.4628      1.00000
     68     -34.4515      1.00000
     69     -34.4513      1.00000
     70     -34.4474      1.00000
     71     -34.4318      1.00000
     72     -34.4233      1.00000
     73     -34.2933      1.00000
     74     -34.2598      1.00000
     75     -34.2563      1.00000
     76     -34.2405      1.00000
     77     -34.2306      1.00000
     78     -34.2181      1.00000
     79     -34.2042      1.00000
     80     -34.1767      1.00000
     81     -34.1613      1.00000
     82     -23.5523      1.00000
     83     -23.2721      1.00000
     84     -23.2138      1.00000
     85     -23.1643      1.00000
     86     -23.1123      1.00000
     87     -23.0407      1.00000
     88     -22.9930      1.00000
     89     -22.9808      1.00000
     90     -22.9630      1.00000
     91     -22.9573      1.00000
     92     -22.9433      1.00000
     93     -22.8996      1.00000
     94     -22.8426      1.00000
     95     -22.8139      1.00000
     96     -22.8080      1.00000
     97     -22.7973      1.00000
     98     -22.7887      1.00000
     99     -22.7480      1.00000
    100     -22.7447      1.00000
    101     -22.7295      1.00000
    102     -22.6965      1.00000
    103     -22.6784      1.00000
    104     -22.6695      1.00000
    105     -22.6503      1.00000
    106     -22.6412      1.00000
    107     -22.6229      1.00000
    108     -22.6043      1.00000
    109     -22.5991      1.00000
    110     -22.5919      1.00000
    111     -22.5796      1.00000
    112     -22.5639      1.00000
    113     -22.5499      1.00000
    114     -22.5421      1.00000
    115     -22.5249      1.00000
    116     -22.5056      1.00000
    117     -22.4951      1.00000
    118     -22.4916      1.00000
    119     -22.4759      1.00000
    120     -22.4689      1.00000
    121     -22.4590      1.00000
    122     -22.4567      1.00000
    123     -22.4391      1.00000
    124     -22.4265      1.00000
    125     -22.3874      1.00000
    126     -22.3775      1.00000
    127     -22.3586      1.00000
    128     -22.3469      1.00000
    129     -22.3278      1.00000
    130     -22.3185      1.00000
    131     -22.3051      1.00000
    132     -22.2928      1.00000
    133     -22.2840      1.00000
    134     -22.2691      1.00000
    135     -22.2270      1.00000
    136     -16.9967      1.00000
    137     -16.9511      1.00000
    138     -16.9296      1.00000
    139     -16.8092      1.00000
    140     -16.7989      1.00000
    141     -16.7921      1.00000
    142     -16.7375      1.00000
    143     -16.6934      1.00000
    144     -16.6819      1.00000
    145     -16.6778      1.00000
    146     -16.6509      1.00000
    147     -16.6189      1.00000
    148     -16.5875      1.00000
    149     -16.5648      1.00000
    150     -16.5601      1.00000
    151     -16.5418      1.00000
    152     -16.5185      1.00000
    153     -16.5035      1.00000
    154     -16.4871      1.00000
    155     -16.4585      1.00000
    156     -16.4418      1.00000
    157     -16.4185      1.00000
    158     -16.3840      1.00000
    159     -16.3789      1.00000
    160     -16.3114      1.00000
    161     -16.2470      1.00000
    162     -16.1830      1.00000
    163      -6.8953      1.00000
    164      -6.8231      1.00000
    165      -6.7700      1.00000
    166      -6.5476      1.00000
    167      -6.4541      1.00000
    168      -6.4266      1.00000
    169      -6.4002      1.00000
    170      -6.3772      1.00000
    171      -6.3502      1.00000
    172      -6.3051      1.00000
    173      -6.2637      1.00000
    174      -6.2604      1.00000
    175      -6.2311      1.00000
    176      -6.2035      1.00000
    177      -6.1914      1.00000
    178      -6.1655      1.00000
    179      -6.1406      1.00000
    180      -6.0987      1.00000
    181      -6.0734      1.00000
    182      -6.0375      1.00000
    183      -6.0250      1.00000
    184      -6.0051      1.00000
    185      -5.9733      1.00000
    186      -5.9683      1.00000
    187      -5.9458      1.00000
    188      -5.9262      1.00000
    189      -5.9121      1.00000
    190      -5.9022      1.00000
    191      -5.8710      1.00000
    192      -5.8489      1.00000
    193      -5.8418      1.00000
    194      -5.7827      1.00000
    195      -5.7683      1.00000
    196      -5.7562      1.00000
    197      -5.7324      1.00000
    198      -5.7223      1.00000
    199      -5.6805      1.00000
    200      -5.6566      1.00000
    201      -5.6417      1.00000
    202      -5.6304      1.00000
    203      -5.6203      1.00000
    204      -5.6112      1.00000
    205      -5.5981      1.00000
    206      -5.5852      1.00000
    207      -5.5584      1.00000
    208      -5.5486      1.00000
    209      -5.5283      1.00000
    210      -5.5165      1.00000
    211      -5.5095      1.00000
    212      -5.5007      1.00000
    213      -5.4850      1.00000
    214      -5.4819      1.00000
    215      -5.4470      1.00000
    216      -5.4368      1.00000
    217      -5.3536      1.00000
    218      -5.3218      1.00000
    219      -5.2788      1.00000
    220      -5.1866      1.00000
    221      -5.1187      1.00000
    222      -5.1150      1.00000
    223      -5.0871      1.00000
    224      -5.0680      1.00000
    225      -5.0298      1.00000
    226      -4.9981      1.00000
    227      -4.9611      1.00000
    228      -4.9410      1.00000
    229      -4.9234      1.00000
    230      -4.8958      1.00000
    231      -4.8635      1.00000
    232      -4.8523      1.00000
    233      -4.8377      1.00000
    234      -4.8225      1.00000
    235      -4.7981      1.00000
    236      -4.7890      1.00000
    237      -4.7735      1.00000
    238      -4.7647      1.00000
    239      -4.7479      1.00000
    240      -4.7372      1.00000
    241      -4.7286      1.00000
    242      -4.7250      1.00000
    243      -4.7142      1.00000
    244      -4.6937      1.00000
    245      -4.6767      1.00000
    246      -4.6611      1.00000
    247      -4.6327      1.00000
    248      -4.6122      1.00000
    249      -4.5664      1.00000
    250      -4.5472      1.00000
    251      -4.5103      1.00000
    252      -4.4644      1.00000
    253      -4.4046      1.00000
    254      -4.3621      1.00000
    255      -4.3072      1.00000
    256      -4.3008      1.00000
    257      -4.2740      1.00000
    258      -4.2583      1.00000
    259      -4.2464      1.00000
    260      -4.2176      1.00000
    261      -4.1886      1.00000
    262      -4.1821      1.00000
    263      -4.1754      1.00000
    264      -4.1488      1.00000
    265      -4.1337      1.00000
    266      -4.1209      1.00000
    267      -4.1023      1.00000
    268      -4.0790      1.00000
    269      -4.0574      1.00000
    270      -4.0435      1.00000
    271      -4.0232      1.00000
    272      -4.0151      1.00000
    273      -3.9932      1.00000
    274      -3.9853      1.00000
    275      -3.9826      1.00000
    276      -3.9612      1.00000
    277      -3.9517      1.00000
    278      -3.9355      1.00000
    279      -3.9256      1.00000
    280      -3.9196      1.00000
    281      -3.9143      1.00000
    282      -3.8962      1.00000
    283      -3.8840      1.00000
    284      -3.8776      1.00000
    285      -3.8646      1.00000
    286      -3.8527      1.00000
    287      -3.8461      1.00000
    288      -3.8202      1.00000
    289      -3.8060      1.00000
    290      -3.7773      1.00000
    291      -3.7653      1.00000
    292      -3.7429      1.00000
    293      -3.7307      1.00000
    294      -3.7178      1.00000
    295      -3.6990      1.00000
    296      -3.6919      1.00000
    297      -3.6866      1.00000
    298      -3.6507      1.00000
    299      -3.6401      1.00000
    300      -3.6345      1.00000
    301      -3.6215      1.00000
    302      -3.6006      1.00000
    303      -3.5891      1.00000
    304      -3.5791      1.00000
    305      -3.5679      1.00000
    306      -3.5592      1.00000
    307      -3.5486      1.00000
    308      -3.5343      1.00000
    309      -3.5157      1.00000
    310      -3.5079      1.00000
    311      -3.4899      1.00000
    312      -3.4764      1.00000
    313      -3.4740      1.00000
    314      -3.4518      1.00000
    315      -3.4494      1.00000
    316      -3.4403      1.00000
    317      -3.4298      1.00000
    318      -3.4244      1.00000
    319      -3.4147      1.00000
    320      -3.4075      1.00000
    321      -3.4012      1.00000
    322      -3.3818      1.00000
    323      -3.3663      1.00000
    324      -3.3471      1.00000
    325      -3.3416      1.00000
    326      -3.3258      1.00000
    327      -3.3132      1.00000
    328      -3.2953      1.00000
    329      -3.2761      1.00000
    330      -3.2737      1.00000
    331      -3.2649      1.00000
    332      -3.2576      1.00000
    333      -3.2431      1.00000
    334      -3.2183      1.00000
    335      -3.2137      1.00000
    336      -3.1790      1.00000
    337      -3.1734      1.00000
    338      -3.1646      1.00000
    339      -3.1476      1.00000
    340      -3.1457      1.00000
    341      -3.1257      1.00000
    342      -3.1168      1.00000
    343      -3.1079      1.00000
    344      -3.0988      1.00000
    345      -3.0717      1.00000
    346      -3.0649      1.00000
    347      -3.0377      1.00000
    348      -3.0342      1.00000
    349      -2.9882      1.00000
    350      -2.9729      1.00000
    351      -2.9302      1.00000
    352      -2.7773      1.00000
    353      -2.7158      1.00000
    354      -2.6967      1.00000
    355      -2.6911      1.00000
    356      -2.6498      1.00000
    357      -2.5873      1.00000
    358      -2.5711      1.00000
    359      -2.5481      1.00000
    360      -2.5289      1.00000
    361      -2.4978      1.00000
    362      -2.4853      1.00000
    363      -2.4668      1.00000
    364      -2.4650      1.00000
    365      -2.4289      1.00000
    366      -2.4266      1.00000
    367      -2.3888      1.00000
    368      -2.3743      1.00000
    369      -2.3667      1.00000
    370      -2.3427      1.00000
    371      -2.3303      1.00000
    372      -2.2419      1.00000
    373      -2.2044      1.00000
    374      -2.1532      1.00000
    375      -2.1260      1.00000
    376      -2.1047      1.00000
    377      -2.1012      1.00000
    378      -2.0919      1.00000
    379      -2.0303      1.00000
    380      -2.0167      1.00000
    381      -1.8699      1.00000
    382      -1.8404      1.00000
    383      -1.7701      1.00000
    384      -1.7297      1.00000
    385      -1.6559      1.00000
    386      -1.6372      1.00000
    387      -1.5730      1.00000
    388      -1.5642      1.00000
    389      -1.5205      1.00000
    390      -1.5036      1.00000
    391      -1.4832      1.00000
    392      -1.4622      1.00000
    393      -1.4374      1.00000
    394      -1.3850      1.00000
    395      -1.3752      1.00000
    396      -1.3447      1.00000
    397      -1.3364      1.00000
    398      -1.2408      1.00000
    399      -1.1562      1.00000
    400      -1.0785      1.00000
    401      -1.0715      1.00000
    402      -1.0123      1.00000
    403      -0.9558      1.00000
    404      -0.9151      1.00000
    405      -0.8953      1.00000
    406       1.6430      0.00000
    407       1.6874      0.00000
    408       1.7329      0.00000
    409       1.8955      0.00000
    410       1.9229      0.00000
    411       2.0242      0.00000
    412       2.0748      0.00000
    413       2.0970      0.00000
    414       2.1282      0.00000
    415       2.1507      0.00000
    416       2.2565      0.00000
    417       2.3565      0.00000
    418       2.4354      0.00000
    419       2.4782      0.00000
    420       2.5073      0.00000
    421       2.5349      0.00000
    422       2.5465      0.00000
    423       2.5720      0.00000
    424       2.5845      0.00000
    425       2.5978      0.00000
    426       2.6362      0.00000
    427       2.6658      0.00000
    428       2.6751      0.00000
    429       2.6934      0.00000
    430       2.7254      0.00000
    431       2.7292      0.00000
    432       2.7386      0.00000
    433       2.7458      0.00000
    434       2.7592      0.00000
    435       2.7786      0.00000
    436       2.7816      0.00000
    437       2.8077      0.00000
    438       2.8287      0.00000
    439       2.8940      0.00000
    440       2.9297      0.00000
    441       2.9378      0.00000
    442       2.9490      0.00000
    443       2.9602      0.00000
    444       2.9913      0.00000
    445       3.0092      0.00000
    446       3.0432      0.00000
    447       3.0618      0.00000
    448       3.0672      0.00000
    449       3.0820      0.00000
    450       3.0999      0.00000
    451       3.1026      0.00000
    452       3.1206      0.00000
    453       3.1375      0.00000
    454       3.1703      0.00000
    455       3.1912      0.00000
    456       3.2391      0.00000
    457       3.2522      0.00000
    458       3.2784      0.00000
    459       3.2937      0.00000
    460       3.3297      0.00000
    461       3.3637      0.00000
    462       3.3781      0.00000
    463       3.4132      0.00000
    464       3.4421      0.00000
    465       3.4574      0.00000
    466       3.4784      0.00000
    467       3.4856      0.00000
    468       3.5133      0.00000
    469       3.5386      0.00000
    470       3.5639      0.00000
    471       3.6197      0.00000
    472       3.6273      0.00000
    473       3.6445      0.00000
    474       3.6563      0.00000
    475       3.6959      0.00000
    476       3.7048      0.00000
    477       3.7110      0.00000
    478       3.7406      0.00000
    479       3.7612      0.00000
    480       3.7756      0.00000
    481       3.8051      0.00000
    482       3.8137      0.00000
    483       3.8381      0.00000
    484       3.8674      0.00000
    485       3.8787      0.00000
    486       3.9059      0.00000
    487       3.9080      0.00000
    488       3.9438      0.00000
    489       3.9536      0.00000
    490       3.9601      0.00000
    491       3.9730      0.00000
    492       3.9894      0.00000
    493       4.0147      0.00000
    494       4.0388      0.00000
    495       4.0475      0.00000
    496       4.0535      0.00000
    497       4.0806      0.00000
    498       4.1066      0.00000
    499       4.1582      0.00000
    500       4.1733      0.00000
    501       4.2007      0.00000
    502       4.2587      0.00000
    503       4.2758      0.00000
    504       4.2912      0.00000
    505       4.3679      0.00000
    506       4.3711      0.00000
    507       4.4499      0.00000
    508       4.5417      0.00000
    509       4.5729      0.00000
    510       4.7257      0.00000
    511       4.7526      0.00000
    512       4.8005      0.00000
    513       5.0513      0.00000
    514       5.0757      0.00000
    515       5.1123      0.00000
    516       5.1997      0.00000
    517       5.2713      0.00000
    518       5.3055      0.00000
    519       5.3822      0.00000
    520       5.4697      0.00000
    521       5.5065      0.00000
    522       5.5868      0.00000
    523       5.6630      0.00000
    524       5.6845      0.00000
    525       5.8191      0.00000
    526       5.8537      0.00000
[...]
      3.71677      3.86234      7.61437        -0.001507     -0.000236     -0.000741
      3.84189      7.61196     11.46532         0.000200      0.000342      0.001214
      4.01651      7.72528      3.85264         0.008685     -0.000508      0.000185
      3.83719      7.85425      7.82841        -0.000817      0.001052      0.000826
      7.84213     11.58803     11.55700         0.000878     -0.000661      0.002218
      7.70767     11.44820      3.92523         0.000729     -0.003652      0.000260
      7.71023      0.00331      7.57204         0.000449     -0.001015     -0.000420
      7.71632      3.97906      0.09533         0.001997      0.000672     -0.001602
      7.82940      3.84691      3.72934         0.000417      0.002323      0.000493
      7.70310      4.01270      7.71165         0.001153      0.000531     -0.000435
      7.83494      7.61665     11.56863         0.000904     -0.000809      0.001502
      7.63878      7.81459      3.97472         0.004239     -0.000472     -0.001893
      7.81940      7.65602      7.62184         0.000109      0.000798     -0.002082
      0.05079      1.93467      3.95744         0.005153     -0.001294      0.004379
     11.47782      1.90997      7.64213        -0.003759     -0.000340      0.000128
     11.55383      5.80044      0.09276        -0.002967     -0.000623      0.005291
      3.82493      1.93718      3.82202        -0.003134     -0.000555      0.000607
      3.89064      5.80725      0.00114         0.001733     -0.000627     -0.001606
      3.85348      9.65363      7.63172        -0.001752     -0.001474     -0.001904
      7.70688      5.78334     11.49701         0.002638     -0.000443     -0.002582
      7.67910      5.77212      7.76605        -0.000253      0.000741      0.000427
      7.76625      9.66344      3.77071         0.002171      0.005730     -0.002156
      1.92497     11.48814      3.95137         0.001348     -0.005333      0.004172
      1.92052      0.04668      7.63190        -0.000239      0.003914     -0.004156
      1.93647      3.81884     11.56668         0.001353      0.001595     -0.002063
      1.93658      3.84778      7.76116         0.000433     -0.000604      0.001222
      5.76750      7.68999      3.83197        -0.009199     -0.001266      0.002068
      9.61023     11.53309     11.53322        -0.000584     -0.000988      0.001293
      9.64244      3.86209      3.89210        -0.001384     -0.003187      0.000285
      9.61936      7.82179     11.53534        -0.000035      0.002960     -0.004375
      9.63701      7.76692      7.77988        -0.000788      0.003022      0.008581
     -0.00711     11.57007      1.93964         0.002381      0.000773     -0.000462
     11.47933      3.89842      9.62383        -0.003395      0.003942     -0.001020
      0.11614      7.69716      9.64424         0.006868     -0.003732      0.000609
      3.85738     11.58442      9.67062        -0.000705      0.000080      0.001113
      3.85571      3.90911      5.77248        -0.002256      0.003041     -0.001374
      3.79157      7.78109      9.65285        -0.000090      0.002848     -0.001648
      7.72283     11.56406      5.79569        -0.000537     -0.001125      0.001986
      7.69214      3.84360      1.91646        -0.000707      0.001189      0.001222
      7.74773      7.76193      5.78050         0.005910      0.003004      0.006577
     11.55241      1.90448     11.55503         0.001044     -0.000701     -0.003552
      0.05463      5.84319      3.77970         0.001948     -0.000593     -0.005614
     11.54054      5.79461      7.60656        -0.002594      0.000337     -0.000629
      0.07967      9.66667     11.57558         0.002721      0.000313     -0.000767
     11.45634      9.61236      3.89604        -0.006387      0.000347      0.002603
      0.03187      9.65718      7.68362         0.003784     -0.000235      0.001882
      3.92260      1.91613      0.07167         0.000366      0.000066      0.000055
      3.93193      1.92083      7.69722         0.000039      0.000784     -0.003138
      3.77018      5.81623      3.75704        -0.000817      0.000498     -0.004033
      3.91492      5.80006      7.76640        -0.000555      0.000212      0.003874
      3.85540      9.67641      0.06641         0.000954      0.000530     -0.000463
      3.88791      9.64713      3.92752         0.002369     -0.000635      0.004107
      7.67976      1.90803     11.51360        -0.000528     -0.000223     -0.000662
      7.64457      1.90910      3.87958        -0.004098      0.000839      0.001629
      7.78736      1.92038      7.72973         0.002687     -0.000341     -0.000361
      7.73245      5.79507      3.87507         0.000578     -0.002276      0.003225
      7.61446      9.67956      0.05998        -0.000392      0.000483      0.004381
      7.60606      9.67834      7.78423        -0.003681      0.000066      0.001939
      1.94501      0.04854      0.00485         0.000707      0.000930     -0.000909
      1.91142      3.96108      3.78089         0.000869      0.001415     -0.005391
      1.93112      7.78571      0.12217         0.001455     -0.002158      0.003750
      1.89830      7.80661      3.88349         0.001892      0.004018      0.002861
      1.90632      7.66696      7.57358         0.000447     -0.001182     -0.002639
      5.80884     -0.00046      0.05125        -0.000038     -0.000159     -0.000082
      5.77423     11.55314      3.78366        -0.001096     -0.001263     -0.002192
      5.80209      0.06398      7.73459        -0.000284      0.001794      0.002150
      5.78025      3.78439     11.50947         0.000271      0.000299     -0.002452
      5.79180      3.94084      3.86054        -0.001086      0.000149     -0.001107
      5.79606      3.78888      7.76301        -0.000933      0.000420     -0.000111
      5.78500      7.80034      0.07984         0.000285     -0.000109      0.003250
      5.76948      7.71671      7.67655        -0.001385      0.000004     -0.003917
      9.63528      0.05240      3.80831        -0.000733      0.006020     -0.002296
      9.60976     11.47282      7.82347        -0.000256     -0.003675      0.002247
      9.64240      3.74851      0.02809        -0.000066     -0.003570      0.001514
      9.61874      3.88865      7.56703        -0.000265      0.001717     -0.006130
      9.68864      7.62573      3.79370         0.001346     -0.004561     -0.003032
     11.39819     11.46607      5.77289        -0.004990     -0.001887      0.000741
      0.02874     11.56154      9.66882         0.001515     -0.000903     -0.000544
     11.55725      3.79360      1.92076        -0.000846     -0.007394     -0.001201
      0.06060      3.99712      5.77206         0.004031      0.002672     -0.001104
      0.02124      7.84233      1.97545         0.000821      0.004994     -0.000158
     11.54994      7.70055      5.72691        -0.004941     -0.002382      0.000968
      3.83614     11.53115      1.91415        -0.002531     -0.000667      0.000195
      4.01722      0.04027      5.77784         0.004432      0.000802     -0.000072
      3.93881      3.87823      1.93410         0.001696     -0.001713     -0.001661
      3.93608      3.80249      9.63972        -0.000609     -0.002828     -0.000891
      3.79226      7.80409      1.94490         0.001900      0.002316      0.001170
      3.82373      7.61392      5.76491        -0.000037     -0.004012      0.000479
      7.71765      0.10200      1.91050        -0.000649      0.004066      0.000118
      7.62158     11.57613      9.63984         0.000729     -0.000962      0.001246
      7.61397      3.82461      5.78279        -0.002970     -0.000037     -0.000597
      7.78262      3.75618      9.63020         0.003311     -0.000413     -0.000922
      7.74614      7.66156      1.93490         0.002495     -0.003680     -0.001203
      7.56439      7.82857      9.64751        -0.005509      0.001529      0.000418
 -----------------------------------------------------------------------------------
    total drift:                               -0.008321      0.000673     -0.001991


--------------------------------------------------------------------------------------------------------



  FREE ENERGIE OF THE ION-ELECTRON SYSTEM (eV)
  ---------------------------------------------------
  free  energy   TOTEN  =      -721.27895443 eV

  energy  without entropy=     -721.27895443  energy(sigma->0) =     -721.27895443
 


--------------------------------------------------------------------------------------------------------


    POTLOK:  cpu time      1.0425: real time      1.0451


--------------------------------------------------------------------------------------------------------


 Quasi-Newton relaxation of ions (Broydens 2nd method)
  g(Force)  = 0.900E-04   g(Stress)= 0.935E-06

 Reset! Starting new Quasi-Newton update for ions 


--------------------------------------------------------------------------------------------------------


  
 reached required accuracy - stopping structural energy minimisation
 writing wavefunctions
     LOOP+:  cpu time    329.7146: real time    379.3700
    4ORBIT:  cpu time      0.0000: real time      0.0000



 total charge

# of ion       s       p       d       tot
------------------------------------------
    1        0.320   6.460   1.762   8.543
    2        0.328   6.460   1.802   8.590
    3        0.319   6.451   1.792   8.563
    4        0.326   6.455   1.796   8.577
    5        0.324   6.459   1.796   8.579
    6        0.327   6.456   1.798   8.581
    7        0.329   6.457   1.818   8.604
    8        0.317   6.491   1.682   8.490
    9        0.324   6.457   1.810   8.591
   10        0.315   6.461   1.767   8.543
   11        0.321   6.456   1.788   8.565
   12        0.326   6.460   1.785   8.571
   13        0.320   6.455   1.791   8.566
   14        0.320   6.457   1.781   8.558
   15        0.321   6.457   1.788   8.566
   16        0.322   6.456   1.787   8.565
   17        0.320   6.464   1.791   8.574
   18        0.320   6.455   1.780   8.556
   19        0.316   6.465   1.760   8.541
   20        0.321   6.461   1.768   8.549
   21        0.317   6.465   1.754   8.537
   22        0.322   6.458   1.782   8.562
   23        0.320   6.457   1.776   8.553
   24        0.317   6.461   1.772   8.549
   25        0.320   6.452   1.784   8.555
   26        0.327   6.464   1.799   8.590
   27        0.326   6.460   1.785   8.570
   28        1.570   3.480   0.000   5.050
   29        1.569   3.470   0.000   5.039
   30        1.569   3.473   0.000   5.042
   31        1.569   3.475   0.000   5.044
   32        1.569   3.475   0.000   5.044
   33        1.569   3.472   0.000   5.042
   34        1.569   3.473   0.000   5.042
   35        1.571   3.469   0.000   5.040
   36        1.570   3.471   0.000   5.041
   37        1.569   3.472   0.000   5.042
   38        1.569   3.475   0.000   5.044
   39        1.569   3.471   0.000   5.040
   40        1.570   3.474   0.000   5.044
   41        1.572   3.476   0.000   5.048
   42        1.571   3.470   0.000   5.040
   43        1.569   3.473   0.000   5.042
   44        1.569   3.470   0.000   5.038
   45        1.569   3.474   0.000   5.042
   46        1.569   3.470   0.000   5.040
   47        1.569   3.474   0.000   5.043
   48        1.571   3.480   0.000   5.050
   49        1.571   3.466   0.000   5.037
   50        1.569   3.473   0.000   5.042
   51        1.569   3.475   0.000   5.044
   52        1.570   3.471   0.000   5.042
   53        1.570   3.475   0.000   5.045
   54        1.569   3.472   0.000   5.042
   55        1.730   4.377   0.000   6.107
   56        1.732   4.370   0.000   6.102
   57        1.729   4.380   0.000   6.110
   58        1.730   4.378   0.000   6.108
   59        1.732   4.374   0.000   6.106
   60        1.729   4.378   0.000   6.108
   61        1.730   4.378   0.000   6.108
   62        1.729   4.380   0.000   6.110
   63        1.730   4.379   0.000   6.109
   64        1.729   4.378   0.000   6.107
   65        1.730   4.379   0.000   6.109
   66        1.730   4.378   0.000   6.108
   67        1.730   4.378   0.000   6.109
   68        1.729   4.378   0.000   6.107
   69        1.730   4.376   0.000   6.106
   70        1.729   4.382   0.000   6.111
   71        1.730   4.377   0.000   6.107
   72        1.730   4.381   0.000   6.111
   73        1.729   4.382   0.000   6.111
   74        1.729   4.380   0.000   6.109
   75        1.730   4.380   0.000   6.110
   76        1.731   4.373   0.000   6.104
   77        1.729   4.378   0.000   6.107
   78        1.730   4.381   0.000   6.110
   79        1.729   4.378   0.000   6.108
   80        1.731   4.378   0.000   6.108
   81        1.730   4.378   0.000   6.108
   82        1.729   4.380   0.000   6.109
   83        1.730   4.378   0.000   6.108
   84        1.729   4.376   0.000   6.106
   85        1.730   4.379   0.000   6.109
   86        1.730   4.379   0.000   6.109
   87        1.730   4.375   0.000   6.105
   88        1.730   4.379   0.000   6.109
   89        1.730   4.379   0.000   6.109
   90        1.731   4.378   0.000   6.109
   91        1.729   4.379   0.000   6.109
   92        1.729   4.376   0.000   6.105
   93        1.730   4.378   0.000   6.108
   94        1.730   4.378   0.000   6.108
   95        1.732   4.374   0.000   6.106
   96        1.732   4.371   0.000   6.103
   97        1.729   4.379   0.000   6.108
   98        1.730   4.382   0.000   6.111
   99        1.729   4.380   0.000   6.110
  100        1.729   4.380   0.000   6.109
  101        1.730   4.380   0.000   6.110
  102        1.730   4.378   0.000   6.108
  103        1.730   4.381   0.000   6.111
  104        1.730   4.379   0.000   6.109
  105        1.729   4.378   0.000   6.107
  106        1.730   4.378   0.000   6.108
  107        1.729   4.379   0.000   6.109
  108        1.730   4.378   0.000   6.108
--------------------------------------------------
tot        144.479 504.601  48.094 697.174



 magnetization (x)

# of ion       s       p       d       tot
------------------------------------------
    1       -0.000   0.000  -0.000  -0.000
    2        0.000   0.000   0.000   0.000
    3       -0.000  -0.000   0.000  -0.000
    4       -0.000  -0.000  -0.000  -0.000
    5       -0.000   0.000   0.000   0.000
    6        0.000   0.000  -0.000   0.000
    7       -0.000  -0.000  -0.000  -0.000
    8        0.000   0.000   0.000   0.000
    9       -0.000  -0.000  -0.000  -0.000
   10       -0.000   0.000   0.000   0.000
   11        0.000  -0.000   0.000   0.000
   12       -0.000  -0.000  -0.000  -0.000
   13        0.000  -0.000   0.000   0.000
   14       -0.000   0.000   0.000   0.000
   15       -0.000  -0.000  -0.000  -0.000
   16       -0.000   0.000   0.000   0.000
   17       -0.000   0.000   0.000   0.000
   18       -0.000  -0.000  -0.000  -0.000
   19       -0.000   0.000  -0.000  -0.000
   20        0.000   0.000  -0.000  -0.000
   21        0.000   0.000   0.000   0.000
   22       -0.000  -0.000   0.000   0.000
   23       -0.000  -0.000  -0.000  -0.000
   24       -0.000  -0.000   0.000  -0.000
   25        0.000   0.000   0.000   0.000
   26       -0.000  -0.000  -0.000  -0.000
   27        0.000   0.000  -0.000   0.000
   28        0.000   0.000   0.000   0.000
   29       -0.000  -0.000   0.000  -0.000
   30        0.000   0.000   0.000   0.000
   31       -0.000  -0.000   0.000  -0.000
   32       -0.000  -0.000   0.000  -0.000
   33        0.000   0.000   0.000   0.000
   34        0.000   0.000   0.000   0.000
   35       -0.000  -0.000   0.000  -0.000
   36       -0.000  -0.000   0.000  -0.000
   37        0.000  -0.000   0.000  -0.000
   38        0.000   0.000   0.000   0.000
   39        0.000   0.000   0.000   0.000
   40       -0.000   0.000   0.000   0.000
   41       -0.000   0.000   0.000  -0.000
   42       -0.000   0.000   0.000   0.000
   43       -0.000  -0.000   0.000  -0.000
   44        0.000   0.000   0.000   0.000
   45        0.000   0.000   0.000   0.000
   46       -0.000  -0.000   0.000  -0.000
   47        0.000   0.000   0.000   0.000
   48        0.000   0.000   0.000   0.000
   49       -0.000   0.000   0.000   0.000
   50        0.000   0.000   0.000   0.000
   51       -0.000  -0.000   0.000  -0.000
   52        0.000  -0.000   0.000  -0.000
   53       -0.000  -0.000   0.000  -0.000
   54       -0.000   0.000   0.000  -0.000
   55       -0.000   0.000   0.000  -0.000
   56        0.000  -0.000   0.000  -0.000
   57        0.000  -0.000   0.000   0.000
   58       -0.000  -0.000   0.000  -0.000
   59        0.000  -0.000   0.000  -0.000
   60       -0.000  -0.000   0.000  -0.000
   61        0.000  -0.000   0.000   0.000
   62        0.000   0.000   0.000   0.000
   63       -0.000   0.000   0.000  -0.000
   64        0.000   0.000   0.000   0.000
   65        0.000  -0.000   0.000  -0.000
   66        0.000  -0.000   0.000  -0.000
   67       -0.000  -0.000   0.000  -0.000
   68        0.000   0.000   0.000   0.000
   69        0.000  -0.000   0.000  -0.000
   70        0.000  -0.000   0.000   0.000
   71        0.000  -0.000   0.000  -0.000
   72        0.000  -0.000   0.000  -0.000
   73       -0.000  -0.000   0.000  -0.000
   74        0.000  -0.000   0.000  -0.000
   75        0.000  -0.000   0.000  -0.000
   76       -0.000  -0.000   0.000  -0.000
   77        0.000  -0.000   0.000   0.000
   78        0.000   0.000   0.000   0.000
   79       -0.000   0.000   0.000   0.000
   80       -0.000  -0.000   0.000  -0.000
   81        0.000   0.000   0.000   0.000
   82        0.000  -0.000   0.000  -0.000
   83       -0.000   0.000   0.000   0.000
   84        0.000   0.000   0.000   0.000
   85       -0.000   0.000   0.000   0.000
   86        0.000   0.000   0.000   0.000
   87        0.000   0.000   0.000   0.000
   88       -0.000   0.000   0.000  -0.000
   89        0.000   0.000   0.000   0.000
   90       -0.000  -0.000   0.000  -0.000
   91       -0.000  -0.000   0.000  -0.000
   92        0.000   0.000   0.000   0.000
   93        0.000  -0.000   0.000  -0.000
   94       -0.000  -0.000   0.000  -0.000
   95       -0.000  -0.000   0.000  -0.000
   96       -0.000  -0.000   0.000  -0.000
   97       -0.000  -0.000   0.000  -0.000
   98        0.000  -0.000   0.000   0.000
   99        0.000  -0.000   0.000  -0.000
  100        0.000   0.000   0.000   0.000
  101       -0.000   0.000   0.000   0.000
  102       -0.000   0.000   0.000   0.000
  103       -0.000   0.000   0.000   0.000
  104        0.000   0.000   0.000   0.000
  105        0.000  -0.000   0.000  -0.000
  106        0.000   0.000   0.000   0.000
  107        0.000  -0.000   0.000  -0.000
  108       -0.000  -0.000   0.000  -0.000
--------------------------------------------------
tot         -0.000   0.000   0.000  -0.000
 

 total amount of memory used by VASP MPI-rank0   297697. kBytes
=======================================================================

   base      :      30000. kBytes
   nonlr-proj:      25298. kBytes
   fftplans  :      18873. kBytes
   grid      :      21088. kBytes
   one-center:        435. kBytes
   wavefun   :     202003. kBytes
 
  
  
 General timing and accounting informations for this job:
 ========================================================
  
                  Total CPU time used (sec):      418.774
                            User time (sec):      397.259
                          System time (sec):       21.515
                         Elapsed time (sec):      469.583
  
                   Maximum memory used (kb):      816228.
                   Average memory used (kb):          N/A
  
                          Minor page faults:       144397
                          Major page faults:           16
                 Voluntary context switches:         9572
