 vasp.5.4.4.18Apr17-6-g9f103f2a35 (build Jul 16 2019 12:12:28) complex          
  
 executed on             LinuxIFC date 2020.01.06  10:19:28
 running on   96 total cores
 distrk:  each k-point on   96 cores,    1 groups
 distr:  one band on NCORES_PER_BAND=   8 cores,   12 groups


--------------------------------------------------------------------------------------------------------


 INCAR:
 POTCAR:    PAW_PBE Li_sv 10Sep2004               
 POTCAR:    PAW_PBE Ti_pv 07Sep2000               
 POTCAR:    PAW_PBE O 08Apr2002                   
 POTCAR:    PAW_PBE F 08Apr2002                   
 POTCAR:    PAW_PBE Li_sv 10Sep2004               
   VRHFIN =Li: 1s2s2p                                                           
   LEXCH  = PE                                                                  
   EATOM  =   202.7858 eV,   14.9043 Ry                                         
                                                                                
   TITEL  = PAW_PBE Li_sv 10Sep2004                                             
   LULTRA =        F    use ultrasoft PP ?                                      
   IUNSCR =        0    unscreen: 0-lin 1-nonlin 2-no                           
   RPACOR =    0.000    partial core radius                                     
   POMASS =    7.010; ZVAL   =    3.000    mass and valenz                      
   RCORE  =    1.700    outmost cutoff radius                                   
   RWIGS  =    2.050; RWIGS  =    1.085    wigner-seitz radius (au A)           
   ENMAX  =  499.034; ENMIN  =  374.276 eV                                      
   ICORE  =        2    local potential                                         
   LCOR   =        T    correct aug charges                                     
   LPAW   =        T    paw PP                                                  
   EAUG   =  628.945                                                            
   RMAX   =    1.732    core radius for proj-oper                               
   RAUG   =    1.300    factor for augmentation sphere                          
   RDEP   =    1.728    radius for radial grids                                 
   RDEPT  =    1.329    core radius for aug-charge                              
                                                                                
   Atomic configuration                                                         
    4 entries                                                                   
     n  l   j            E        occ.                                          
     1  0  0.50       -51.8549   2.0000                                         
     2  0  0.50        -2.8742   1.0000                                         
     2  1  0.50        -1.3606   0.0000                                         
     3  2  1.50        -1.3606   0.0000                                         
   Description                                                                  
     l       E           TYP  RCUT    TYP  RCUT                                 
     0    -51.8548813     23  1.400                                             
     0     -2.8742052     23  1.700                                             
     1     -1.3605826     23  1.400                                             
     2     -1.3605826     23  1.400                                             
  local pseudopotential read in
  atomic valenz-charges read in
  non local Contribution for L=           0  read in
    real space projection operators read in
  non local Contribution for L=           0  read in
    real space projection operators read in
  non local Contribution for L=           1  read in
    real space projection operators read in
    PAW grid and wavefunctions read in
 
   number of l-projection  operators is LMAX  =           3
   number of lm-projection operators is LMMAX =           5
 
 POTCAR:    PAW_PBE Ti_pv 07Sep2000               
   VRHFIN =Ti: d3 s1                                                            
   LEXCH  = PE                                                                  
   EATOM  =  1042.5995 eV,   76.6289 Ry                                         
                                                                                
   TITEL  = PAW_PBE Ti_pv 07Sep2000                                             
   LULTRA =        F    use ultrasoft PP ?                                      
   IUNSCR =        1    unscreen: 0-lin 1-nonlin 2-no                           
   RPACOR =    2.200    partial core radius                                     
   POMASS =   47.880; ZVAL   =   10.000    mass and valenz                      
   RCORE  =    2.500    outmost cutoff radius                                   
   RWIGS  =    2.500; RWIGS  =    1.323    wigner-seitz radius (au A)           
   ENMAX  =  222.335; ENMIN  =  166.751 eV                                      
   RCLOC  =    1.701    cutoff for local pot                                    
   LCOR   =        T    correct aug charges                                     
   LPAW   =        T    paw PP                                                  
   EAUG   =  482.848                                                            
   DEXC   =    0.000                                                            
   RMAX   =    2.564    core radius for proj-oper                               
   RAUG   =    1.300    factor for augmentation sphere                          
   RDEP   =    2.538    radius for radial grids                                 
   RDEPT  =    1.952    core radius for aug-charge                              
                                                                                
   Atomic configuration                                                         
    8 entries                                                                   
     n  l   j            E        occ.                                          
     1  0  0.50     -4865.3608   2.0000                                         
     2  0  0.50      -533.1368   2.0000                                         
     2  1  1.50      -440.5031   6.0000                                         
     3  0  0.50       -59.3186   2.0000                                         
     3  1  1.50       -35.7012   6.0000                                         
     3  2  2.50        -1.9157   3.0000                                         
     4  0  0.50        -3.7291   1.0000                                         
     4  3  2.50        -1.3606   0.0000                                         
   Description                                                                  
     l       E           TYP  RCUT    TYP  RCUT                                 
     1    -35.7012140     23  2.300                                             
     1     -1.3605826     23  2.300                                             
     2     -1.9156996     23  2.500                                             
     2     -0.4063033     23  2.500                                             
     0     -3.7290856     23  2.500                                             
     0     20.4087390     23  2.500                                             
  local pseudopotential read in
  partial core-charges read in
  partial kinetic energy density read in
  atomic valenz-charges read in
  non local Contribution for L=           1  read in
    real space projection operators read in
  non local Contribution for L=           1  read in
    real space projection operators read in
  non local Contribution for L=           2  read in
    real space projection operators read in
  non local Contribution for L=           2  read in
    real space projection operators read in
  non local Contribution for L=           0  read in
    real space projection operators read in
  non local Contribution for L=           0  read in
    real space projection operators read in
    PAW grid and wavefunctions read in
 
   number of l-projection  operators is LMAX  =           6
   number of lm-projection operators is LMMAX =          18
 
 POTCAR:    PAW_PBE O 08Apr2002                   
   VRHFIN =O: s2p4                                                              
   LEXCH  = PE                                                                  
   EATOM  =   432.3788 eV,   31.7789 Ry                                         
                                                                                
   TITEL  = PAW_PBE O 08Apr2002                                                 
   LULTRA =        F    use ultrasoft PP ?                                      
   IUNSCR =        1    unscreen: 0-lin 1-nonlin 2-no                           
   RPACOR =    1.200    partial core radius                                     
   POMASS =   16.000; ZVAL   =    6.000    mass and valenz                      
   RCORE  =    1.520    outmost cutoff radius                                   
   RWIGS  =    1.550; RWIGS  =    0.820    wigner-seitz radius (au A)           
   ENMAX  =  400.000; ENMIN  =  300.000 eV                                      
   ICORE  =        2    local potential                                         
   LCOR   =        T    correct aug charges                                     
   LPAW   =        T    paw PP                                                  
   EAUG   =  605.392                                                            
   DEXC   =    0.000                                                            
   RMAX   =    1.553    core radius for proj-oper                               
   RAUG   =    1.300    factor for augmentation sphere                          
   RDEP   =    1.550    radius for radial grids                                 
   RDEPT  =    1.329    core radius for aug-charge                              
                                                                                
   Atomic configuration                                                         
    4 entries                                                                   
     n  l   j            E        occ.                                          
     1  0  0.50      -514.6923   2.0000                                         
     2  0  0.50       -23.9615   2.0000                                         
     2  1  0.50        -9.0305   4.0000                                         
     3  2  1.50        -9.5241   0.0000                                         
   Description                                                                  
     l       E           TYP  RCUT    TYP  RCUT                                 
     0    -23.9615318     23  1.200                                             
     0     -9.5240782     23  1.200                                             
     1     -9.0304911     23  1.520                                             
     1      8.1634956     23  1.520                                             
     2     -9.5240782      7  1.500                                             
  local pseudopotential read in
  partial core-charges read in
  partial kinetic energy density read in
  kinetic energy density of atom read in
  atomic valenz-charges read in
  non local Contribution for L=           0  read in
    real space projection operators read in
  non local Contribution for L=           0  read in
    real space projection operators read in
  non local Contribution for L=           1  read in
    real space projection operators read in
  non local Contribution for L=           1  read in
    real space projection operators read in
    PAW grid and wavefunctions read in
 
   number of l-projection  operators is LMAX  =           4
   number of lm-projection operators is LMMAX =           8
 
 POTCAR:    PAW_PBE F 08Apr2002                   
   VRHFIN =F: s2p5                                                              
   LEXCH  = PE                                                                  
   EATOM  =   659.6475 eV,   48.4827 Ry                                         
                                                                                
   TITEL  = PAW_PBE F 08Apr2002                                                 
   LULTRA =        F    use ultrasoft PP ?                                      
   IUNSCR =        1    unscreen: 0-lin 1-nonlin 2-no                           
   RPACOR =    1.200    partial core radius                                     
   POMASS =   18.998; ZVAL   =    7.000    mass and valenz                      
   RCORE  =    1.520    outmost cutoff radius                                   
   RWIGS  =    1.500; RWIGS  =    0.794    wigner-seitz radius (au A)           
   ENMAX  =  400.000; ENMIN  =  300.000 eV                                      
   ICORE  =        2    local potential                                         
   LCOR   =        T    correct aug charges                                     
   LPAW   =        T    paw PP                                                  
   EAUG   =  613.614                                                            
   RMAX   =    1.555    core radius for proj-oper                               
   RAUG   =    1.300    factor for augmentation sphere                          
   RDEP   =    1.539    radius for radial grids                                 
   RDEPT  =    1.299    core radius for aug-charge                              
                                                                                
   Atomic configuration                                                         
    4 entries                                                                   
     n  l   j            E        occ.                                          
     1  0  0.50      -663.3661   2.0000                                         
     2  0  0.50       -29.8995   2.0000                                         
     2  1  0.50       -11.1114   5.0000                                         
     3  2  1.50       -10.8847   0.0000                                         
   Description                                                                  
     l       E           TYP  RCUT    TYP  RCUT                                 
     0    -29.8995018     23  1.200                                             
     0     -9.5240782     23  1.200                                             
     1    -11.1113914     23  1.520                                             
     1      1.3605826     23  1.520                                             
     2    -10.8846608      7  1.500                                             
  local pseudopotential read in
  partial core-charges read in
  partial kinetic energy density read in
  atomic valenz-charges read in
  non local Contribution for L=           0  read in
    real space projection operators read in
  non local Contribution for L=           0  read in
    real space projection operators read in
  non local Contribution for L=           1  read in
    real space projection operators read in
  non local Contribution for L=           1  read in
    real space projection operators read in
    PAW grid and wavefunctions read in
 
   number of l-projection  operators is LMAX  =           4
   number of lm-projection operators is LMMAX =           8
 
 Optimization of the real space projectors (new method)

 maximal supplied QI-value         = 22.11
 optimisation between [QCUT,QGAM] = [ 11.28, 22.77] = [ 35.61,145.23] Ry 
 Optimized for a Real-space Cutoff    1.31 Angstroem

   l    n(q)    QCUT    max X(q) W(low)/X(q) W(high)/X(q)  e(spline) 
   0      9    11.276    10.506    0.19E-04    0.17E-04    0.32E-07
   0      9    11.276     8.367    0.38E-04    0.40E-04    0.65E-07
   1      8    11.276     8.983    0.55E-04    0.98E-04    0.20E-06
 Optimization of the real space projectors (new method)

 maximal supplied QI-value         = 15.12
 optimisation between [QCUT,QGAM] = [ 11.34, 22.83] = [ 36.00,145.93] Ry 
 Optimized for a Real-space Cutoff    1.56 Angstroem

   l    n(q)    QCUT    max X(q) W(low)/X(q) W(high)/X(q)  e(spline) 
   1     10    11.338     4.216    0.27E-04    0.12E-04    0.66E-07
   1     10    11.338     5.422    0.81E-04    0.24E-04    0.19E-06
   2     10    11.338    72.084    0.64E-04    0.21E-03    0.51E-06
   2     10    11.338    65.965    0.63E-04    0.21E-03    0.50E-06
   0     11    11.338    41.531    0.33E-04    0.54E-04    0.13E-06
   0     11    11.338    16.290    0.26E-04    0.41E-04    0.11E-06
 Optimization of the real space projectors (new method)

 maximal supplied QI-value         = 24.76
 optimisation between [QCUT,QGAM] = [ 11.39, 22.77] = [ 36.31,145.25] Ry 
 Optimized for a Real-space Cutoff    1.20 Angstroem

   l    n(q)    QCUT    max X(q) W(low)/X(q) W(high)/X(q)  e(spline) 
   0      8    11.387    20.381    0.89E-04    0.31E-03    0.27E-06
   0      8    11.387    15.268    0.93E-04    0.32E-03    0.29E-06
   1      8    11.387     5.964    0.53E-04    0.28E-03    0.29E-06
   1      8    11.387     5.382    0.37E-04    0.22E-03    0.26E-06
 Optimization of the real space projectors (new method)

 maximal supplied QI-value         = 24.76
 optimisation between [QCUT,QGAM] = [ 11.39, 22.77] = [ 36.31,145.25] Ry 
 Optimized for a Real-space Cutoff    1.20 Angstroem

   l    n(q)    QCUT    max X(q) W(low)/X(q) W(high)/X(q)  e(spline) 
   0      8    11.387    14.049    0.69E-04    0.23E-03    0.18E-06
   0      8    11.387     8.945    0.88E-04    0.30E-03    0.26E-06
   1      8    11.387     7.086    0.62E-04    0.27E-03    0.27E-06
   1      8    11.387     6.747    0.46E-04    0.23E-03    0.25E-06

 ----------------------------------------------------------------------------- 
|                                                                             |
|  ADVICE TO THIS USER RUNNING 'VASP/VAMP'   (HEAR YOUR MASTER'S VOICE ...):  |
|                                                                             |
|      You enforced a specific xc-type in the INCAR file,                     |
|      a different type was found on the POTCAR file                          |
|          I HOPE YOU KNOW, WHAT YOU ARE  DOING                               |
|                                                                             |
 ----------------------------------------------------------------------------- 

  PAW_PBE Li_sv 10Sep2004               :
 energy of atom  1       EATOM= -202.7858
 kinetic energy error for atom=    0.0143 (will be added to EATOM!!)
  PAW_PBE Ti_pv 07Sep2000               :
 energy of atom  2       EATOM=-1042.5995
 kinetic energy error for atom=    0.0024 (will be added to EATOM!!)
  PAW_PBE O 08Apr2002                   :
 energy of atom  3       EATOM= -432.3788
 kinetic energy error for atom=    0.0224 (will be added to EATOM!!)
  PAW_PBE F 08Apr2002                   :
 energy of atom  4       EATOM= -659.6475
 kinetic energy error for atom=    0.0354 (will be added to EATOM!!)
 
 
 POSCAR: config 09                               
  positions in direct lattice
  velocities in cartesian coordinates
 exchange correlation table for  LEXCH =       14
   RHO(1)=    0.500       N(1)  =     2000
   RHO(2)=  100.500       N(2)  =     4000

 VTST: version 3.2, (02/03/18)

 CHAIN: initializing optimizer
 
 OPT: Using VASP QUASI-newton optimizer
 CHAIN: Read ICHAIN            0
 
 POSCAR: config 09                               
  positions in direct lattice
  velocities in cartesian coordinates
 


--------------------------------------------------------------------------------------------------------


 ion  position               nearest neighbor table
   1  0.128  0.690  0.127-  71 1.95  97 1.99 162 2.00 185 2.06  60 2.84  28 2.85
   2  0.996  0.993  0.995- 118 1.86  68 1.89 103 1.90 171 2.03 130 2.04 212 2.06
   3  0.999  0.991  0.494- 119 1.82  67 1.82 172 1.95 193 1.97 131 2.02 213 2.09
   4  0.005  0.494  0.998-  89 1.85 117 1.85 138 1.94 132 1.99 194 2.02 214 2.03
   5  0.994  0.505  0.507-  66 1.83 104 1.84 215 1.93 223 2.01 173 2.01 137 2.04
   6  0.494  0.993  0.000- 101 1.83 121 1.85 140 1.96 133 1.97 216 2.02 174 2.03
   7  0.502  0.009  0.499- 112 1.78 191 1.91 134 1.92 139 1.93 175 1.94 225 2.03
   8  0.504  0.495  0.997-  70 1.88 120 1.88  90 1.88 192 2.04 135 2.04 217 2.06
   9  0.493  0.499  0.495- 102 1.81  69 1.86 224 1.99 218 2.00 136 2.01 176 2.07
  10  0.007  0.003  0.256-  91 1.84  67 1.87 227 1.92 219 1.96 130 2.01 197 2.08
  11  0.002  0.007  0.758-  68 1.79 113 1.84 177 1.95 198 1.98 228 2.05 131 2.07
  12  0.993  0.492  0.252- 107 1.83 122 1.88 137 1.94 220 1.95 132 1.98 178 2.06
  13  0.993  0.500  0.742- 108 1.82  66 1.83 226 1.93 221 1.97 138 2.04 179 2.04
  14  0.505  0.009  0.251- 114 1.82  92 1.84 133 1.93 139 1.98 195 2.00 231 2.06
  15  0.493  0.006  0.753- 105 1.81 115 1.84 140 1.94 134 2.00 232 2.01 180 2.04
  16  0.493  0.495  0.258-  69 1.83 106 1.84 229 1.97 222 2.01 135 2.02 181 2.04
  17  0.502  0.504  0.759-  70 1.80 116 1.87 182 1.95 196 1.97 230 2.03 136 2.08
  18  0.995  0.257  0.002- 117 1.83 110 1.88 141 1.96 146 1.97 183 2.01 212 2.02
  19  0.999  0.250  0.491-  74 1.77 213 1.92 184 1.94 202 1.94 223 1.95 142 2.02
  20  0.996  0.757  0.007- 118 1.82  71 1.82 203 1.94 185 2.04 148 2.05 214 2.08
  21  0.997  0.757  0.508-  72 1.83 119 1.83 204 1.95 186 1.97 147 2.02 215 2.04
  22  0.495  0.258  0.002- 120 1.80 109 1.85 150 1.96 143 1.98 187 2.04 216 2.08
  23  0.510  0.246  0.498-  93 1.80 112 1.91 144 1.93 149 1.94 224 1.98 199 2.01
  24  0.508  0.756  0.999-  94 1.82 121 1.84 152 1.94 145 1.99 217 2.02 200 2.03
  25  0.508  0.753  0.508-  73 1.79  95 1.83 218 1.97 225 1.97 201 2.02 151 2.07
  26  0.999  0.259  0.254- 122 1.79  74 1.89 209 1.96 188 1.97 141 2.00 219 2.04
  27  0.007  0.243  0.749- 113 1.80  96 1.83 142 1.96 146 1.98 210 2.05 226 2.06
  28  0.001  0.748  0.248-  71 1.95  97 2.01 147 2.01 220 2.03 227 2.04 211 2.06   1 2.85
  29  0.993  0.750  0.744- 111 1.82  72 1.84 228 1.94 221 1.98 148 2.02 189 2.03
  30  0.507  0.241  0.252-  98 1.82 114 1.83 143 1.93 149 1.97 229 2.02 205 2.03
  31  0.508  0.243  0.751-  99 1.84 115 1.84 150 1.93 144 1.98 206 2.02 230 2.02
  32  0.505  0.750  0.252- 100 1.79 151 1.93 231 1.94 145 1.95 222 1.95 207 1.99
  33  0.503  0.742  0.744- 116 1.80  73 1.84 190 1.93 208 1.97 152 2.03 232 2.07
  34  0.256  0.997  0.006-  75 1.84 101 1.86 246 1.95 233 1.97 171 2.02 157 2.04
  35  0.252  0.993  0.506- 128 1.82  76 1.84 172 1.95 191 2.00 156 2.02 234 2.04
  36  0.244  0.508  0.998- 123 1.83  89 1.84 159 1.93 153 1.98 192 2.02 245 2.03
  37  0.256  0.494  0.506-  77 1.86 102 1.87 127 1.88 173 2.04 158 2.05 235 2.06
  38  0.757  1.000  0.994- 103 1.79  81 1.87 236 1.96 249 1.96 154 2.05 174 2.06
  39  0.750  0.008  0.495-  80 1.83 124 1.84 193 1.94 155 1.99 175 2.00 250 2.04
  40  0.741  0.501  0.005-  90 1.80  78 1.87 237 1.96 247 1.97 161 2.03 194 2.06
  41  0.756  0.498  0.505-  79 1.84 104 1.85 248 1.96 238 1.99 176 2.02 160 2.03
  42  0.244  0.002  0.244-  91 1.84  75 1.84 239 1.95 252 1.97 156 2.04 195 2.07
  43  0.259  0.998  0.744-  76 1.84 105 1.84 253 1.93 240 1.97 177 2.02 157 2.03
  44  0.255  0.490  0.252- 129 1.83 106 1.84 158 1.93 153 1.98 241 2.04 178 2.05
  45  0.248  0.505  0.740-  77 1.79 125 1.84 179 1.95 196 1.97 251 2.02 159 2.07
  46  0.744  0.002  0.256-  92 1.85  80 1.86 256 1.95 242 1.96 154 2.00 197 2.00
  47  0.748  0.007  0.756-  81 1.82 126 1.83 180 1.95 198 1.96 257 2.04 155 2.07
  48  0.755  0.497  0.243-  78 1.82 107 1.85 243 1.96 254 1.97 181 2.03 160 2.05
  49  0.758  0.498  0.743- 108 1.83  79 1.84 255 1.94 244 1.98 182 2.03 161 2.04
  50  0.257  0.252  0.006- 109 1.83  82 1.86 245 1.94 233 1.98 168 2.02 183 2.06
  51  0.254  0.257  0.505- 127 1.81  83 1.85 199 1.97 184 2.01 167 2.04 234 2.06
  52  0.255  0.742  0.990-  86 1.80 123 1.83 200 1.92 185 2.01 246 2.03 162 2.07
  53  0.253  0.755  0.493-  85 1.81 128 1.87 201 1.96 186 1.98 235 2.01 163 2.04
  54  0.757  0.252  0.008- 110 1.81  84 1.86 236 1.94 247 1.95 170 2.03 187 2.04
  55  0.743  0.243  0.498- 124 1.82  93 1.85 169 1.94 164 1.96 248 2.03 202 2.04
  56  0.741  0.748  0.994-  94 1.82  88 1.83 237 1.95 249 1.95 203 2.02 165 2.03
  57  0.742  0.753  0.494-  95 1.82  87 1.85 250 1.95 238 1.97 166 2.02 204 2.04
  58  0.250  0.258  0.244- 129 1.82  82 1.83 205 1.97 188 2.00 167 2.03 239 2.04
  59  0.244  0.252  0.744-  83 1.84  96 1.84 251 1.94 240 1.97 168 2.04 206 2.05
  60  0.244  0.746  0.258-  97 1.77  85 1.84 241 1.98 252 1.99 207 2.07 162 2.10   1 2.84
  61  0.248  0.740  0.753- 125 1.80  86 1.85 189 1.93 208 1.97 163 1.99 253 2.05
  62  0.741  0.250  0.243-  84 1.80  98 1.84 254 1.94 242 1.95 209 2.05 169 2.07
  63  0.745  0.243  0.751- 126 1.82  99 1.84 170 1.94 164 2.00 210 2.02 255 2.05
  64  0.743  0.749  0.257-  87 1.82 100 1.89 211 1.95 243 1.95 256 1.96 165 2.03
  65  0.758  0.750  0.757- 111 1.82  88 1.84 257 1.93 244 1.97 190 2.03 166 2.05
  66  0.007  0.512  0.624-  13 1.83   5 1.83
  67  0.999  0.997  0.376-   3 1.82  10 1.87
  68  0.003  0.993  0.873-  11 1.79   2 1.89
  69  0.501  0.489  0.376-  16 1.83   9 1.86
  70  0.495  0.493  0.875-  17 1.80   8 1.88
  71  0.008  0.732  0.122-  20 1.82   1 1.95  28 1.95
  72  0.005  0.738  0.625-  21 1.83  29 1.84
  73  0.507  0.747  0.624-  25 1.79  33 1.84
  74  0.992  0.257  0.377-  19 1.77  26 1.89
  75  0.256  0.996  0.125-  34 1.84  42 1.84
  76  0.259  0.999  0.625-  43 1.84  35 1.84
  77  0.242  0.489  0.625-  45 1.79  37 1.86
  78  0.749  0.488  0.125-  48 1.82  40 1.87
  79  0.748  0.491  0.624-  49 1.84  41 1.84
  80  0.747  0.004  0.376-  39 1.83  46 1.86
  81  0.743  0.003  0.874-  47 1.82  38 1.87
  82  0.242  0.254  0.125-  58 1.83  50 1.86
  83  0.250  0.255  0.625-  59 1.84  51 1.85
  84  0.739  0.261  0.127-  62 1.80  54 1.86
  85  0.257  0.741  0.377-  53 1.81  60 1.84
  86  0.256  0.745  0.873-  52 1.80  61 1.85
  87  0.755  0.747  0.374-  64 1.82  57 1.85
  88  0.754  0.747  0.876-  56 1.83  65 1.84
  89  0.124  0.511  0.998-  36 1.84   4 1.85
  90  0.625  0.512  0.999-  40 1.80   8 1.88
  91  0.126  0.013  0.249-  42 1.84  10 1.84
  92  0.624  0.011  0.248-  14 1.84  46 1.85
  93  0.625  0.263  0.490-  23 1.80  55 1.85
  94  0.624  0.734  0.996-  56 1.82  24 1.82
  95  0.625  0.768  0.492-  57 1.82  25 1.83
  96  0.125  0.255  0.753-  27 1.83  59 1.84
  97  0.130  0.734  0.248-  60 1.77   1 1.99  28 2.01
  98  0.625  0.236  0.264-  30 1.82  62 1.84
  99  0.626  0.255  0.753-  63 1.84  31 1.84
 100  0.621  0.743  0.255-  32 1.79  64 1.89
 101  0.376  0.992  0.991-   6 1.83  34 1.86
 102  0.376  0.510  0.503-   9 1.81  37 1.87
 103  0.873  0.994  0.998-  38 1.79   2 1.90
 104  0.876  0.509  0.498-   5 1.84  41 1.85
 105  0.377  1.000  0.760-  15 1.81  43 1.84
 106  0.374  0.486  0.250-  44 1.84  16 1.84
 107  0.874  0.486  0.252-  12 1.83  48 1.85
 108  0.876  0.510  0.748-  13 1.82  49 1.83
 109  0.376  0.255  0.007-  50 1.83  22 1.85
 110  0.874  0.256  0.009-  54 1.81  18 1.88
 111  0.875  0.741  0.746-  65 1.82  29 1.82
 112  0.516  0.123  0.489-   7 1.78  23 1.91
 113  0.000  0.126  0.755-  27 1.80  11 1.84
 114  0.486  0.125  0.267-  14 1.82  30 1.83
 115  0.505  0.124  0.755-  15 1.84  31 1.84
 116  0.505  0.625  0.755-  33 1.80  17 1.87
 117  0.007  0.375  0.012-  18 1.83   4 1.85
 118  0.008  0.874  0.009-  20 1.82   2 1.86
 119  0.987  0.875  0.509-   3 1.82  21 1.83
 120  0.508  0.374  0.012-  22 1.80   8 1.88
 121  0.511  0.875  0.009-  24 1.84   6 1.85
 122  0.014  0.373  0.239-  26 1.79  12 1.88
 123  0.260  0.625  0.009-  52 1.83  36 1.83
 124  0.735  0.126  0.507-  55 1.82  39 1.84
 125  0.245  0.624  0.742-  61 1.80  45 1.84
 126  0.749  0.125  0.741-  63 1.82  47 1.83
 127  0.260  0.373  0.489-  51 1.81  37 1.88
 128  0.261  0.876  0.496-  35 1.82  53 1.87
 129  0.236  0.374  0.261-  58 1.82  44 1.83
 130  0.996  0.012  0.126-  10 2.01   2 2.04
 131  0.000  0.007  0.624-   3 2.02  11 2.07
 132  0.998  0.516  0.125-  12 1.98   4 1.99
 133  0.491  0.012  0.126-  14 1.93   6 1.97
 134  0.494  0.005  0.623-   7 1.92  15 2.00
 135  0.500  0.511  0.128-  16 2.02   8 2.04
 136  0.508  0.505  0.624-   9 2.01  17 2.08
 137  0.004  0.485  0.377-  12 1.94   5 2.04
 138  0.998  0.488  0.873-   4 1.94  13 2.04
 139  0.507  0.984  0.377-   7 1.93  14 1.98
 140  0.517  0.992  0.875-  15 1.94   6 1.96
 141  0.009  0.237  0.127-  18 1.96  26 2.00
 142  0.004  0.247  0.622-  27 1.96  19 2.02
 143  0.511  0.233  0.127-  30 1.93  22 1.98
 144  0.504  0.241  0.623-  23 1.93  31 1.98
 145  0.500  0.739  0.126-  32 1.95  24 1.99
 146  0.992  0.261  0.875-  18 1.97  27 1.98
 147  0.993  0.758  0.377-  28 2.01  21 2.02
 148  0.999  0.757  0.874-  29 2.02  20 2.05
 149  0.488  0.266  0.376-  23 1.94  30 1.97
 150  0.496  0.259  0.875-  31 1.93  22 1.96
 151  0.488  0.761  0.376-  32 1.93  25 2.07
 152  0.493  0.758  0.874-  24 1.94  33 2.03
 153  0.245  0.488  0.125-  44 1.98  36 1.98
 154  0.751  0.998  0.127-  46 2.00  38 2.05
 155  0.751  0.992  0.623-  39 1.99  47 2.07
 156  0.250  0.005  0.375-  35 2.02  42 2.04
 157  0.241  0.999  0.874-  43 2.03  34 2.04
 158  0.247  0.515  0.375-  44 1.93  37 2.05
 159  0.257  0.505  0.873-  36 1.93  45 2.07
 160  0.746  0.508  0.375-  41 2.03  48 2.05
 161  0.752  0.509  0.874-  40 2.03  49 2.04
 162  0.241  0.752  0.122-   1 2.00  52 2.07  60 2.10
 163  0.246  0.757  0.625-  61 1.99  53 2.04
 164  0.748  0.264  0.623-  55 1.96  63 2.00
 165  0.744  0.752  0.125-  64 2.03  56 2.03
 166  0.744  0.753  0.625-  57 2.02  65 2.05
 167  0.257  0.239  0.374-  58 2.03  51 2.04
 168  0.256  0.246  0.875-  50 2.02  59 2.04
 169  0.764  0.241  0.374-  55 1.94  62 2.07
 170  0.757  0.241  0.876-  63 1.94  54 2.03
 171  0.126  0.007  0.004-  34 2.02   2 2.03
 172  0.125  0.992  0.503-  35 1.95   3 1.95
 173  0.124  0.493  0.493-   5 2.01  37 2.04
 174  0.625  0.009  0.010-   6 2.03  38 2.06
 175  0.624  0.980  0.506-   7 1.94  39 2.00
 176  0.626  0.487  0.498-  41 2.02   9 2.07
 177  0.127  0.997  0.744-  11 1.95  43 2.02
 178  0.124  0.514  0.246-  44 2.05  12 2.06
 179  0.124  0.491  0.760-  45 1.95  13 2.04
 180  0.624  0.993  0.738-  47 1.95  15 2.04
 181  0.624  0.508  0.250-  48 2.03  16 2.04
 182  0.627  0.491  0.755-  17 1.95  49 2.03
 183  0.125  0.244  0.992-  18 2.01  50 2.06
 184  0.124  0.257  0.494-  19 1.94  51 2.01
 185  0.126  0.734  1.000-  52 2.01  20 2.04   1 2.06
 186  0.124  0.760  0.495-  21 1.97  53 1.98
 187  0.626  0.242  0.992-  22 2.04  54 2.04
 188  0.124  0.232  0.259-  26 1.97  58 2.00
 189  0.124  0.756  0.754-  61 1.93  29 2.03
 190  0.627  0.757  0.756-  33 1.93  65 2.03
 191  0.378  0.015  0.491-   7 1.91  35 2.00
 192  0.373  0.490  0.006-  36 2.02   8 2.04
 193  0.875  0.017  0.504-  39 1.94   3 1.97
 194  0.874  0.491  0.999-   4 2.02  40 2.06
 195  0.377  0.988  0.258-  14 2.00  42 2.07
 196  0.375  0.501  0.742-  45 1.97  17 1.97
 197  0.873  0.991  0.250-  46 2.00  10 2.08
 198  0.875  0.997  0.747-  47 1.96  11 1.98
 199  0.380  0.235  0.502-  51 1.97  23 2.01
 200  0.377  0.763  0.006-  52 1.92  24 2.03
 201  0.378  0.738  0.507-  53 1.96  25 2.02
 202  0.874  0.240  0.508-  19 1.94  55 2.04
 203  0.871  0.762  0.006-  20 1.94  56 2.02
 204  0.872  0.736  0.507-  21 1.95  57 2.04
 205  0.378  0.264  0.242-  58 1.97  30 2.03
 206  0.377  0.247  0.747-  31 2.02  59 2.05
 207  0.377  0.758  0.242-  32 1.99  60 2.07
 208  0.375  0.751  0.744-  33 1.97  61 1.97
 209  0.873  0.264  0.242-  26 1.96  62 2.05
 210  0.875  0.252  0.744-  63 2.02  27 2.05
 211  0.868  0.759  0.242-  64 1.95  28 2.06
 212  0.996  0.127  0.993-  18 2.02   2 2.06
 213  0.009  0.126  0.498-  19 1.92   3 2.09
 214  0.987  0.624  0.986-   4 2.03  20 2.08
 215  0.010  0.627  0.484-   5 1.93  21 2.04
 216  0.497  0.124  0.991-   6 2.02  22 2.08
 217  0.484  0.627  0.995-  24 2.02   8 2.06
 218  0.514  0.627  0.491-  25 1.97   9 2.00
 219  0.984  0.128  0.256-  10 1.96  26 2.04
 220  0.988  0.618  0.267-  12 1.95  28 2.03
 221  0.013  0.624  0.764-  13 1.97  29 1.98
 222  0.489  0.625  0.261-  32 1.95  16 2.01
 223  0.993  0.374  0.510-  19 1.95   5 2.01
 224  0.487  0.372  0.512-  23 1.98   9 1.99
 225  0.483  0.879  0.506-  25 1.97   7 2.03
 226  0.994  0.375  0.740-  13 1.93  27 2.06
 227  0.008  0.879  0.241-  10 1.92  28 2.04
 228  0.998  0.875  0.739-  29 1.94  11 2.05
 229  0.513  0.371  0.238-  16 1.97  30 2.02
 230  0.495  0.374  0.739-  31 2.02  17 2.03
 231  0.506  0.876  0.240-  32 1.94  14 2.06
 232  0.500  0.875  0.746-  15 2.01  33 2.07
 233  0.254  0.124  0.999-  34 1.97  50 1.98
 234  0.241  0.124  0.501-  35 2.04  51 2.06
 235  0.240  0.626  0.510-  53 2.01  37 2.06
 236  0.753  0.126  0.008-  54 1.94  38 1.96
 237  0.767  0.625  0.008-  56 1.95  40 1.96
 238  0.736  0.626  0.505-  57 1.97  41 1.99
 239  0.267  0.126  0.247-  42 1.95  58 2.04
 240  0.249  0.125  0.752-  43 1.97  59 1.97
 241  0.263  0.621  0.235-  60 1.98  44 2.04
 242  0.766  0.126  0.243-  62 1.95  46 1.96
 243  0.757  0.624  0.243-  64 1.95  48 1.96
 244  0.737  0.625  0.744-  65 1.97  49 1.98
 245  0.242  0.376  0.991-  50 1.94  36 2.03
 246  0.238  0.872  0.997-  34 1.95  52 2.03
 247  0.740  0.375  0.985-  54 1.95  40 1.97
 248  0.763  0.372  0.488-  41 1.96  55 2.03
 249  0.736  0.874  0.002-  56 1.95  38 1.96
 250  0.767  0.877  0.499-  57 1.95  39 2.04
 251  0.258  0.376  0.762-  59 1.94  45 2.02
 252  0.244  0.875  0.256-  42 1.97  60 1.99
 253  0.251  0.873  0.752-  43 1.93  61 2.05
 254  0.736  0.374  0.267-  62 1.94  48 1.97
 255  0.758  0.374  0.761-  49 1.94  63 2.05
 256  0.739  0.875  0.250-  46 1.95  64 1.96
 257  0.754  0.875  0.749-  65 1.93  47 2.04
 

IMPORTANT INFORMATION: All symmetrisations will be switched off!
NOSYMM: (Re-)initialisation of all symmetry stuff for point group C_1.

 
 
 KPOINTS: Title                                   

Automatic generation of k-mesh.
Space group operators:
 irot       det(A)        alpha          n_x          n_y          n_z        tau_x        tau_y        tau_z
    1     1.000000     0.000001     1.000000     0.000000     0.000000     0.000000     0.000000     0.000000
 
 Subroutine IBZKPT returns following result:
 ===========================================
 
 Found      4 irreducible k-points:
 
 Following reciprocal coordinates:
            Coordinates               Weight
  0.250000  0.250000  0.250000      2.000000
 -0.250000  0.250000  0.250000      2.000000
  0.250000 -0.250000  0.250000      2.000000
 -0.250000 -0.250000  0.250000      2.000000
 
 Following cartesian coordinates:
            Coordinates               Weight
  0.016206  0.016206  0.016206      2.000000
 -0.016206  0.016206  0.016206      2.000000
  0.016206 -0.016206  0.016206      2.000000
 -0.016206 -0.016206  0.016206      2.000000
 


--------------------------------------------------------------------------------------------------------




 Dimension of arrays:
   k-points           NKPTS =      4   k-points in BZ     NKDIM =      4   number of bands    NBANDS=   1164
   number of dos      NEDOS =   3001   number of ions     NIONS =    257
   non local maximal  LDIM  =      6   non local SUM 2l+1 LMDIM =     18
   total plane-waves  NPLWV = ******
   max r-space proj   IRMAX =   7595   max aug-charges    IRDMAX= 146383
   dimension x,y,z NGX =   120 NGY =  120 NGZ =  120
   dimension x,y,z NGXF=   240 NGYF=  240 NGZF=  240
   support grid    NGXF=   480 NGYF=  480 NGZF=  480
   ions per type =               1  64  64 128
   NGX,Y,Z   is equivalent  to a cutoff of  12.93, 12.93, 12.93 a.u.
   NGXF,Y,Z  is equivalent  to a cutoff of  25.86, 25.86, 25.86 a.u.

 SYSTEM =  LTO                                     
 POSCAR =  config 09                               

 Startparameter for this run:
   NWRITE =      2    write-flag & timer
   PREC   = accura    normal or accurate (medium, high low for compatibility)
   ISTART =      1    job   : 0-new  1-cont  2-samecut
   ICHARG =      0    charge: 1-file 2-atom 10-const
   ISPIN  =      2    spin polarized calculation?
   LNONCOLLINEAR =      F non collinear calculations
   LSORBIT =      F    spin-orbit coupling
   INIWAV =      1    electr: 0-lowe 1-rand  2-diag
   LASPH  =      T    aspherical Exc in radial PAW
   METAGGA=      F    non-selfconsistent MetaGGA calc.

 Electronic Relaxation 1
   ENCUT  =  500.0 eV  36.75 Ry    6.06 a.u.  28.13 28.13 28.13*2*pi/ulx,y,z
   ENINI  =  500.0     initial cutoff
   ENAUG  =  628.9 eV  augmentation charge cutoff
   NELM   =     60;   NELMIN=  2; NELMDL=  0     # of ELM steps 
   EDIFF  = 0.1E-05   stopping-criterion for ELM
   LREAL  =      T    real-space projection
   NLSPLINE    = F    spline interpolate recip. space projectors
   LCOMPAT=      F    compatible to vasp.4.4
   GGA_COMPAT  = T    GGA compatible to vasp.4.4-vasp.4.6
   LMAXPAW     = -100 max onsite density
   LMAXMIX     =    4 max onsite mixed and CHGCAR
   VOSKOWN=      0    Vosko Wilk Nusair interpolation
   ROPT   =   -0.00010  -0.00010  -0.00010  -0.00010
 Ionic relaxation
   EDIFFG = -.5E-01   stopping-criterion for IOM
   NSW    =    100    number of steps for IOM
   NBLOCK =      1;   KBLOCK =    100    inner block; outer block 
   IBRION =      1    ionic relax: 0-MD 1-quasi-New 2-CG
   NFREE  =      0    steps in history (QN), initial steepest desc. (CG)
   ISIF   =      2    stress and relaxation
   IWAVPR =     11    prediction:  0-non 1-charg 2-wave 3-comb
   ISYM   =      0    0-nonsym 1-usesym 2-fastsym
   LCORR  =      T    Harris-Foulkes like correction to forces

   POTIM  = 0.5000    time-step for ionic-motion
   TEIN   =    0.0    initial temperature
   TEBEG  =    0.0;   TEEND  =   0.0 temperature during run
   SMASS  =  -3.00    Nose mass-parameter (am)
   estimated Nose-frequenzy (Omega)   =  0.10E-29 period in steps =****** mass=  -0.544E-26a.u.
   SCALEE = 1.0000    scale energy and forces
   NPACO  =    256;   APACO  = 16.0  distance and # of slots for P.C.
   PSTRESS=    0.0 pullay stress

  Mass of Ions in am
   POMASS =   7.01 47.88 16.00 19.00
  Ionic Valenz
   ZVAL   =   3.00 10.00  6.00  7.00
  Atomic Wigner-Seitz radii
   RWIGS  =  -1.00 -1.00 -1.00 -1.00
  virtual crystal weights 
   VCA    =   1.00  1.00  1.00  1.00
   NELECT =    1923.0000    total number of electrons
   NUPDOWN=       1.0000    fix difference up-down

 DOS related values:
   EMIN   =  10.00;   EMAX   =-10.00  energy-range for DOS
   EFERMI =   0.00
   ISMEAR =     0;   SIGMA  =   0.01  broadening in eV -4-tet -1-fermi 0-gaus

 Electronic relaxation 2 (details)
   IALGO  =     38    algorithm
   LDIAG  =      T    sub-space diagonalisation (order eigenvalues)
   LSUBROT=      F    optimize rotation matrix (better conditioning)
   TURBO    =      0    0=normal 1=particle mesh
   IRESTART =      0    0=no restart 2=restart with 2 vectors
   NREBOOT  =      0    no. of reboots
   NMIN     =      0    reboot dimension
   EREF     =   0.00    reference energy to select bands
   IMIX   =      4    mixing-type and parameters
     AMIX     =   0.40;   BMIX     =  1.00
     AMIX_MAG =   1.60;   BMIX_MAG =  1.00
     AMIN     =   0.10
     WC   =   100.;   INIMIX=   1;  MIXPRE=   1;  MAXMIX= -45

 Intra band minimization:
   WEIMIN = 0.0010     energy-eigenvalue tresh-hold
   EBREAK =  0.21E-09  absolut break condition
   DEPER  =   0.30     relativ break condition  

   TIME   =   0.40     timestep for ELM

  volume/ion in A,a.u.               =      14.28        96.39
  Fermi-wavevector in a.u.,A,eV,Ry     =   1.319690  2.493853 23.695660  1.741582
  Thomas-Fermi vector in A             =   2.449570
 
 Write flags
   LWAVE        =      T    write WAVECAR
   LDOWNSAMPLE  =      F    k-point downsampling of WAVECAR
   LCHARG       =      T    write CHGCAR
   LVTOT        =      F    write LOCPOT, total local potential
   LVHAR        =      F    write LOCPOT, Hartree potential only
   LELF         =      F    write electronic localiz. function (ELF)
   LORBIT       =     11    0 simple, 1 ext, 2 COOP (PROOUT), +10 PAW based schemes


 Dipole corrections
   LMONO  =      F    monopole corrections only (constant potential shift)
   LDIPOL =      F    correct potential (dipole corrections)
   IDIPOL =      0    1-x, 2-y, 3-z, 4-all directions 
   EPSILON=  1.0000000 bulk dielectric constant

 LDA+U is selected, type is set to LDAUTYPE =  2
   angular momentum for each species LDAUL =    -1    2   -1   -1
   U (eV)           for each species LDAUU =   0.0  4.2  0.0  0.0
   J (eV)           for each species LDAUJ =   0.0  0.0  0.0  0.0
 Exchange correlation treatment:
   GGA     =    PS    GGA type
   LEXCH   =    14    internal setting for exchange type
   VOSKOWN=      0    Vosko Wilk Nusair interpolation
   LHFCALC =     F    Hartree Fock is set to
   LHFONE  =     F    Hartree Fock one center treatment
   AEXX    =    0.0000 exact exchange contribution

 Linear response parameters
   LEPSILON=     F    determine dielectric tensor
   LRPA    =     F    only Hartree local field effects (RPA)
   LNABLA  =     F    use nabla operator in PAW spheres
   LVEL    =     F    velocity operator in full k-point grid
   LINTERFAST=   F  fast interpolation
   KINTER  =     0    interpolate to denser k-point grid
   CSHIFT  =0.1000    complex shift for real part using Kramers Kronig
   OMEGAMAX=  -1.0    maximum frequency
   DEG_THRESHOLD= 0.2000000E-02 threshold for treating states as degnerate
   RTIME   =   -0.100 relaxation time in fs
  (WPLASMAI=    0.000 imaginary part of plasma frequency in eV, 0.658/RTIME)
   DFIELD  = 0.0000000 0.0000000 0.0000000 field for delta impulse in time
 
 Orbital magnetization related:
   ORBITALMAG=     F  switch on orbital magnetization
   LCHIMAG   =     F  perturbation theory with respect to B field
   DQ        =  0.001000  dq finite difference perturbation B field
   LLRAUG    =     F  two centre corrections for induced B field



--------------------------------------------------------------------------------------------------------


 quasi-Newton-method for relaxation of ions
 charge density and potential will be updated during run
 spin polarized calculation
 Variant of blocked Davidson
 Davidson routine will perform the subspace rotation
 perform sub-space diagonalisation
    after iterative eigenvector-optimisation
 modified Broyden-mixing scheme, WC =      100.0
 initial mixing is a Kerker type mixing with AMIX =  0.4000 and BMIX =      1.0000
 Hartree-type preconditioning will be used
 using additional bands          202
 real space projection scheme for non local part
 use partial core corrections
 calculate Harris-corrections to forces 
   (improved forces if not selfconsistent)
 use gradient corrections 
 use of overlap-Matrix (Vanderbilt PP)
 Gauss-broadening in eV      SIGMA  =   0.01


--------------------------------------------------------------------------------------------------------


  energy-cutoff  :      500.00
  volume of cell :     3671.03
      direct lattice vectors                 reciprocal lattice vectors
    15.426331000  0.000000000  0.000000000     0.064824228  0.000000000  0.000000000
     0.000000000 15.426331000  0.000000000     0.000000000  0.064824228  0.000000000
     0.000000000  0.000000000 15.426331000     0.000000000  0.000000000  0.064824228

  length of vectors
    15.426331000 15.426331000 15.426331000     0.064824228  0.064824228  0.064824228


 
 old parameters found on file WAVECAR:
  energy-cutoff  :      500.00
  volume of cell :     3671.03
      direct lattice vectors                 reciprocal lattice vectors
    15.426331000  0.000000000  0.000000000     0.064824228  0.000000000  0.000000000
     0.000000000 15.426331000  0.000000000     0.000000000  0.064824228  0.000000000
     0.000000000  0.000000000 15.426331000     0.000000000  0.000000000  0.064824228

  length of vectors

 
 k-points in units of 2pi/SCALE and weight: Title                                   
   0.01620606  0.01620606  0.01620606       0.250
  -0.01620606  0.01620606  0.01620606       0.250
   0.01620606 -0.01620606  0.01620606       0.250
  -0.01620606 -0.01620606  0.01620606       0.250
 
 k-points in reciprocal lattice and weights: Title                                   
   0.25000000  0.25000000  0.25000000       0.250
  -0.25000000  0.25000000  0.25000000       0.250
   0.25000000 -0.25000000  0.25000000       0.250
  -0.25000000 -0.25000000  0.25000000       0.250
 
 position of ions in fractional coordinates (direct lattice) 
   0.12787441  0.69045071  0.12653949
   0.99550672  0.99325937  0.99537967
   0.99896424  0.99104304  0.49425670
   0.00524521  0.49445667  0.99803975
   0.99446228  0.50460338  0.50688830
   0.49446912  0.99313603  0.00006402
   0.50190025  0.00917248  0.49871691
   0.50429755  0.49514025  0.99655027
   0.49273263  0.49937899  0.49512485
   0.00681023  0.00327952  0.25579833
   0.00238684  0.00674693  0.75802508
   0.99262458  0.49240629  0.25160003
   0.99317829  0.50015853  0.74151642
   0.50496792  0.00908813  0.25059672
   0.49337346  0.00562790  0.75270448
   0.49271093  0.49500261  0.25762127
   0.50200873  0.50375197  0.75884236
   0.99539313  0.25732720  0.00231433
   0.99878912  0.24952053  0.49096748
   0.99610768  0.75670720  0.00717571
   0.99712153  0.75652290  0.50846037
   0.49506544  0.25834110  0.00194065
   0.50950670  0.24609525  0.49800775
   0.50797873  0.75576813  0.99890981
   0.50770382  0.75339146  0.50839812
   0.99945744  0.25925592  0.25439255
   0.00724559  0.24264973  0.74871826
   0.00070526  0.74756134  0.24754795
   0.99332347  0.74965652  0.74371459
   0.50728044  0.24050691  0.25199692
   0.50763447  0.24346894  0.75120734
   0.50505547  0.75036090  0.25212875
   0.50287610  0.74159137  0.74355902
   0.25643947  0.99689423  0.00589743
   0.25159384  0.99297818  0.50595511
   0.24359399  0.50782445  0.99779116
   0.25574379  0.49392413  0.50550269
   0.75664695  0.99956719  0.99408149
   0.74968604  0.00806071  0.49473410
   0.74117698  0.50052782  0.00535950
   0.75631595  0.49842401  0.50541570
   0.24415164  0.00215009  0.24355555
   0.25855186  0.99762543  0.74421186
   0.25512010  0.49046761  0.25218635
   0.24754527  0.50480250  0.73963488
   0.74351511  0.00153498  0.25574432
   0.74798903  0.00723538  0.75604070
   0.75512737  0.49719356  0.24279680
   0.75815656  0.49827825  0.74283462
   0.25686662  0.25195804  0.00611461
   0.25409853  0.25707006  0.50490432
   0.25526766  0.74180722  0.98961720
   0.25280082  0.75488636  0.49309276
   0.75674390  0.25170059  0.00795448
   0.74250506  0.24312049  0.49780518
   0.74101839  0.74802322  0.99365865
   0.74174225  0.75288028  0.49356150
   0.25019947  0.25760574  0.24377324
   0.24429733  0.25226970  0.74372342
   0.24396875  0.74597659  0.25802995
   0.24836307  0.74042188  0.75306557
   0.74105425  0.25030121  0.24258571
   0.74464813  0.24250375  0.75118753
   0.74323946  0.74886065  0.25696958
   0.75820538  0.75016251  0.75654860
   0.00727057  0.51180662  0.62449032
   0.99853820  0.99706392  0.37643517
   0.00322296  0.99322444  0.87342386
   0.50070806  0.48873816  0.37560910
   0.49548329  0.49260180  0.87489034
   0.00846449  0.73185864  0.12217146
   0.00509268  0.73794403  0.62532159
   0.50704855  0.74694698  0.62433023
   0.99154091  0.25745740  0.37651504
   0.25638953  0.99641629  0.12497253
   0.25893633  0.99916368  0.62509048
   0.24171998  0.48871767  0.62508503
   0.74927377  0.48838607  0.12548875
   0.74828439  0.49128058  0.62435868
   0.74718272  0.00387967  0.37627496
   0.74322623  0.00316043  0.87366099
   0.24222980  0.25431312  0.12548506
   0.24960071  0.25467622  0.62472708
   0.73857949  0.26114644  0.12652521
   0.25695285  0.74107080  0.37674733
   0.25570530  0.74508438  0.87289465
   0.75476785  0.74715214  0.37447109
   0.75353448  0.74736500  0.87557811
   0.12405575  0.51094996  0.99805370
   0.62519703  0.51241225  0.99911934
   0.12558148  0.01275448  0.24945084
   0.62396728  0.01130330  0.24767192
   0.62487367  0.26342880  0.49020445
   0.62395818  0.73448918  0.99648537
   0.62462432  0.76781824  0.49240731
   0.12531688  0.25468857  0.75295135
   0.13001515  0.73418247  0.24781403
   0.62486657  0.23587848  0.26367972
   0.62620020  0.25540899  0.75261978
   0.62073458  0.74290512  0.25548382
   0.37604908  0.99203652  0.99089544
   0.37611989  0.51031360  0.50301572
   0.87254306  0.99354431  0.99780094
   0.87566523  0.50945445  0.49844779
   0.37670571  0.99970091  0.76004994
   0.37400806  0.48611372  0.25012483
   0.87428663  0.48591288  0.25205622
   0.87586648  0.51038495  0.74825886
   0.37555590  0.25452471  0.00738102
   0.87396915  0.25551666  0.00866108
   0.87535725  0.74137556  0.74623256
   0.51617913  0.12303594  0.48894200
   0.00025355  0.12607415  0.75491766
   0.48645694  0.12479765  0.26681467
   0.50452032  0.12418318  0.75513299
   0.50464651  0.62517667  0.75489147
   0.00659123  0.37504411  0.01151275
   0.00770933  0.87393029  0.00930301
   0.98683939  0.87470370  0.50851312
   0.50834983  0.37400733  0.01174560
   0.51069247  0.87454067  0.00917748
   0.01399886  0.37333186  0.23923805
   0.26030938  0.62488930  0.00860666
   0.73491416  0.12572262  0.50727452
   0.24511556  0.62417757  0.74175394
   0.74891211  0.12514532  0.74089818
   0.25973244  0.37319469  0.48904445
   0.26103839  0.87565154  0.49581968
   0.23560761  0.37365310  0.26092456
   0.99633866  0.01158753  0.12641171
   0.00045881  0.00712756  0.62388871
   0.99836579  0.51564600  0.12523351
   0.49068359  0.01234818  0.12632826
   0.49372608  0.00482628  0.62275312
   0.49986601  0.51073572  0.12766851
   0.50788560  0.50497020  0.62438413
   0.00390916  0.48452226  0.37660445
   0.99770245  0.48763409  0.87285215
   0.50672598  0.98356571  0.37663436
   0.51749967  0.99218264  0.87516677
   0.00869749  0.23695876  0.12726474
   0.00393379  0.24659296  0.62158909
   0.51072849  0.23326198  0.12689297
   0.50381074  0.24086994  0.62272184
   0.50023662  0.73943715  0.12648254
   0.99230263  0.26121771  0.87451712
   0.99258500  0.75813887  0.37740436
   0.99921006  0.75730519  0.87422055
   0.48827168  0.26645717  0.37553507
   0.49568849  0.25941961  0.87486389
   0.48798888  0.76050229  0.37558312
   0.49316683  0.75819866  0.87379974
   0.24543352  0.48841072  0.12450643
   0.75086966  0.99756028  0.12660738
   0.75088427  0.99242237  0.62298734
   0.25004030  0.00531302  0.37541305
   0.24136291  0.99901586  0.87441335
   0.24673843  0.51532902  0.37482641
   0.25700511  0.50542575  0.87329014
   0.74634208  0.50848112  0.37481957
   0.75200834  0.50888467  0.87445288
   0.24144049  0.75249369  0.12239222
   0.24609499  0.75678838  0.62483127
   0.74751370  0.26362483  0.62311405
   0.74360795  0.75195690  0.12547160
   0.74433426  0.75305123  0.62451179
   0.25714288  0.23913876  0.37408132
   0.25582156  0.24589839  0.87514189
   0.76419889  0.24059886  0.37420053
   0.75650118  0.24123932  0.87647176
   0.12601003  0.00699323  0.00435591
   0.12522687  0.99218255  0.50255485
   0.12385346  0.49307212  0.49333535
   0.62457723  0.00885969  0.00992388
   0.62389549  0.97966763  0.50611472
   0.62606486  0.48748230  0.49841637
   0.12748704  0.99696455  0.74370844
   0.12432052  0.51409240  0.24636155
   0.12384110  0.49082846  0.76020479
   0.62390719  0.99287278  0.73779369
   0.62429905  0.50804090  0.24968286
   0.62735421  0.49058200  0.75468028
   0.12457365  0.24368742  0.99200537
   0.12412068  0.25665837  0.49389200
   0.12595435  0.73370818  0.99992971
   0.12427850  0.75955550  0.49509159
   0.62582361  0.24221864  0.99152220
   0.12409542  0.23171075  0.25942788
   0.12404468  0.75626726  0.75398408
   0.62670418  0.75697804  0.75586891
   0.37820133  0.01537171  0.49106495
   0.37280561  0.48976825  0.00575453
   0.87455156  0.01729136  0.50385490
   0.87428554  0.49135418  0.99896619
   0.37696044  0.98819094  0.25822059
   0.37529294  0.50134308  0.74198638
   0.87259997  0.99117961  0.25007420
   0.87461252  0.99702058  0.74668928
   0.37968195  0.23493768  0.50228430
   0.37677278  0.76346035  0.00588966
   0.37775555  0.73761805  0.50666050
   0.87442305  0.24015792  0.50833572
   0.87069400  0.76158235  0.00619238
   0.87233694  0.73579071  0.50657441
   0.37784273  0.26359037  0.24246360
   0.37699635  0.24748873  0.74726309
   0.37663379  0.75790015  0.24182663
   0.37546528  0.75097571  0.74351941
   0.87317141  0.26385472  0.24198224
   0.87486789  0.25150947  0.74352705
   0.86800065  0.75935310  0.24180620
   0.99612868  0.12686990  0.99274348
   0.00902101  0.12593775  0.49782403
   0.98707149  0.62391572  0.98566089
   0.00987123  0.62700655  0.48443790
   0.49706878  0.12407477  0.99112822
   0.48388832  0.62714293  0.99496946
   0.51387129  0.62695342  0.49056275
   0.98373789  0.12826898  0.25585656
   0.98754724  0.61782973  0.26699491
   0.01279041  0.62439302  0.76423373
   0.48922934  0.62535104  0.26089904
   0.99255521  0.37428090  0.51031973
   0.48748028  0.37156274  0.51194434
   0.48323840  0.87889462  0.50573886
   0.99386560  0.37489293  0.73956687
   0.00778942  0.87949891  0.24113744
   0.99764183  0.87510536  0.73943795
   0.51296297  0.37082930  0.23759255
   0.49528318  0.37352640  0.73923317
   0.50600076  0.87582007  0.24005905
   0.49997964  0.87546267  0.74584406
   0.25363509  0.12413184  0.99921773
   0.24141125  0.12442702  0.50122401
   0.24007015  0.62629935  0.51031035
   0.75265222  0.12578263  0.00826797
   0.76656915  0.62508002  0.00813201
   0.73606073  0.62576049  0.50523848
   0.26653830  0.12620876  0.24713177
   0.24876868  0.12461139  0.75179168
   0.26344267  0.62142279  0.23514155
   0.76633372  0.12620220  0.24311877
   0.75716348  0.62417217  0.24317192
   0.73726364  0.62491790  0.74354002
   0.24169648  0.37610408  0.99084831
   0.23822481  0.87183859  0.99716613
   0.74013112  0.37478562  0.98496104
   0.76309772  0.37249012  0.48803831
   0.73564733  0.87425348  0.00183597
   0.76732620  0.87689131  0.49863708
   0.25757850  0.37612303  0.76209369
   0.24356423  0.87499052  0.25556772
   0.25056418  0.87298109  0.75174753
   0.73559794  0.37357625  0.26733607
   0.75825299  0.37404352  0.76103549
   0.73876678  0.87546572  0.25007832
   0.75384055  0.87523581  0.74910802
 
 position of ions in cartesian coordinates  (Angst):
   1.97263298 10.65112112  1.95204013
  15.35701625 15.32234779 15.35505626
  15.41035297 15.28815802  7.62456741
   0.08091431  7.62765220 15.39609159
  15.34090435  7.78417871  7.81942666
   7.62784426 15.32044508  0.00098752
   7.74247938  0.14149769  7.69337211
   7.77946090  7.63819739 15.37311434
   7.60105661  7.70358557  7.63795989
   0.10505686  0.05059101  3.94602971
   0.03682023  0.10408031 11.69354580
  15.31255540  7.59602239  3.88126531
  15.32109697  7.71561106 11.43887776
   7.78980234  0.14019656  3.86578794
   7.61094224  0.08681788 11.61146845
   7.60072188  7.63607409  3.97415099
   7.74415277  7.77104462 11.70615344
  15.35526389  3.96961464  0.03570166
  15.40765154  3.84918629  7.57382691
  15.36628671 11.67321569  0.11069493
  15.38192669 11.67037267  7.84367803
   7.63704327  3.98525539  0.02993710
   7.85981906  3.79634683  7.68243234
   7.83624810 11.65872926 15.40951339
   7.83200721 11.62206599  7.84271761
  15.41796128  3.99936757  3.92434375
   0.11177282  3.74319513 11.54997569
   0.01087961 11.53212874  3.81875655
  15.32333662 11.56444958 11.47278741
   7.82547605  3.71013913  3.88738791
   7.83093732  3.75583239 11.58837309
   7.79115281 11.57531554  3.88942152
   7.75753317 11.44003390 11.47038756
   3.95592008 15.37842029  0.09097564
   3.88116988 15.31801005  7.80503101
   3.75776150  7.83386798 15.39225677
   3.94518839  7.61943710  7.79805178
  11.67228637 15.41965430 15.33503015
  11.56490501  0.12434714  7.63193194
  11.43364146  7.72130789  0.08267740
  11.66718014  7.68885376  7.79670995
   3.76636398  0.03316805  3.75716860
   3.98850651 15.38970010 11.48045850
   3.93556707  7.56611563  3.89031018
   3.81871526  7.78725039 11.40985243
  11.46971023  0.02367911  3.94519653
  11.53872642  0.11161535 11.66293412
  11.64884470  7.66987244  3.74546376
  11.69557405  7.68660517 11.45921279
   3.96250949  3.88678813  0.09432597
   3.91980798  3.96564778  7.78882120
   3.93784349 11.44336378 15.26616253
   3.89978915 11.64512682  7.60661217
  11.67378185  3.88281664  0.12270847
  11.45412888  3.75045708  7.67930748
  11.43119498 11.53925375 15.32850723
  11.44236142 11.61418040  7.61384300
   3.85965984  3.97391147  3.76052675
   3.76861155  3.89159596 11.47292370
   3.76354273 11.50768180  3.98045547
   3.83133086 11.42199300 11.61703870
  11.43174812  3.86122930  3.74220746
  11.48718857  3.74094313 11.58806746
  11.46545794 11.55217232  3.96409776
  11.69632723 11.57225518 11.67076919
   0.11215822  7.89529836  9.63359442
  15.40378078 15.38103800  5.80701359
   0.04971839 15.32180889 13.47372550
   7.72408830  7.53943662  5.79427037
   7.64348928  7.59903842 13.49634804
   0.13057609 11.28989362  1.88465734
   0.07856137 11.38376891  9.64641779
   7.82189871 11.52265142  9.63112472
  15.29583820  3.97162305  5.80824568
   3.95514978 15.37104748  1.92786755
   3.99443758 15.41342970  9.64285268
   3.72885239  7.53912056  9.64276855
  11.55854516  7.53400515  1.93583103
  11.54328272  7.57865682  9.63156363
  11.52628797  0.05984910  5.80454210
  11.46525383  0.04875379 13.47738367
   3.73671715  3.92311835  1.93577402
   3.85042311  3.92871961  9.63724673
  11.39357171  4.02853140  1.95181978
   3.96383969 11.43200346  5.81182900
   3.94459467 11.49391822 13.46556175
  11.64329866 11.52581624  5.77671496
  11.62427237 11.52909980 13.50695779
   1.91372509  7.88208317 15.39630671
   9.64449632  7.90464098 15.41274571
   1.93726154  0.19675484  3.84811122
   9.62552585  0.17436838  3.82066902
   9.63950801  4.06373991  7.56205611
   9.62538542 11.33047326 15.37211320
   9.63566154 11.84461834  7.59603818
   1.93317974  3.92891018 11.61527672
   2.00565676 11.32574172  3.82286119
   9.63939859  3.63873944  4.06761059
   9.65997148  3.94002363 11.61016180
   9.57565708 11.46030023  3.94117804
   5.80105760 15.30348365 15.28588112
   5.80214991  7.87226657  7.75968704
  13.46013804 15.32674343 15.39240753
  13.50830175  7.85901301  7.68922065
   5.81118695 15.42171711 11.72478198
   5.76957206  7.49895109  3.85850839
  13.48703498  7.49585294  3.88830268
  13.51140625  7.87336724 11.54288885
   5.79344970  3.92638250  0.11386213
  13.48213738  3.94168460  0.13360866
  13.50355064 11.43670483 11.51163045
   7.96275015  1.89799316  7.54258121
   0.00391142  1.94486157 11.64560963
   7.50424575  1.92516980  4.11597135
   7.78289738  1.91569087 11.64893152
   7.78484418  9.64418218 11.64520572
   0.10167851  5.78555456  0.17759943
   0.11892668 13.48153790  0.14351132
  15.22331102 13.49346883  7.84449174
   7.84197269  5.76956082  0.18119149
   7.87811104 13.49095386  0.14157480
   0.21595099  5.75914089  3.69056538
   4.01561864  9.63974921  0.13276923
  11.33702916  1.93943869  7.82538470
   3.78123382  9.62876976 11.44254177
  11.55296602  1.93053307 11.42934050
   4.00671859  5.75702479  7.54416158
   4.02686456 13.50809044  7.64867842
   3.63456101  5.76409641  4.02510864
  15.36984996  0.17875310  1.95006891
   0.00707772  0.10995205  9.62431367
  15.40112119  7.95452580  1.93189363
   7.56944746  0.19048714  1.94878156
   7.61638197  0.07445180  9.60679583
   7.71109856  7.87877826  1.96945662
   7.83481137  7.78983746  9.63195629
   0.06030396  7.47440073  5.80962497
  15.39088824  7.52240485 13.46490621
   7.81692271 15.17281021  5.81008630
   7.98312125 15.30573780 13.50061222
   0.13417038  3.65540431  1.96322797
   0.06068391  3.80402470  9.58883912
   7.87866668  3.59837645  1.95749298
   7.77195118  3.71573948  9.60631316
   7.71681561 11.40680224  1.95116149
  15.30758876  4.02963089 13.49059061
  15.31194469 11.69530122  5.82196461
  15.41414505 11.68244056 13.48601565
   7.53224057  4.11045654  5.79312823
   7.64665472  4.00189272 13.49593988
   7.52787800 11.73176003  5.79386948
   7.60775473 11.69622353 13.47952400
   3.78613875  7.53438538  1.92067747
  11.58316398 15.38869508  1.95308736
  11.58338930 15.30943593  9.61040894
   3.85720448  0.08196038  5.79124601
   3.72334413 15.41114928 13.48898977
   3.80626864  7.94963598  5.78219626
   3.96464594  7.79686495 13.47166276
  11.51331998  7.84399803  5.78209080
  11.60072962  7.85022341 13.48959951
   3.72454091 11.60821675  1.88806287
   3.79634282 11.67446808  9.63885403
  11.53139377  4.06676389  9.61236364
  11.47114240 11.59993611  1.93556636
  11.48234661 11.61681755  9.63392563
   3.96677112  3.68903360  5.77070223
   3.94638810  3.79330990 13.50022851
  11.78878507  3.71155762  5.77254121
  11.67003763  3.72143763 13.52074343
   1.94387246  0.10787984  0.06719564
   1.93179122 15.30573636  7.75257744
   1.91060454  7.60629371  7.61035441
   9.63493508  0.13667247  0.15308906
   9.62441832 15.11267716  7.80749322
   9.65788378  7.52006334  7.68873592
   1.96665734 15.37950508 11.47269253
   1.91780952  7.93055948  3.80045488
   1.91041383  7.57168223 11.72717076
   9.62459885 15.31638412 11.38144972
   9.63064374  7.83720716  3.85169043
   9.67777363  7.56788038 11.64194777
   1.92171432  3.75920282 15.30300321
   1.91472662  3.95929697  7.61894150
   1.94301349 11.31842517 15.42524668
   1.91716131 11.71715449  7.63744674
   9.65416223  3.73654495 15.29554972
   1.91433702  3.57444666  4.00202029
   1.91355432 11.66642900 11.63120803
   9.66774607 11.67739377 11.66028403
   5.83425889  0.23712903  7.57533044
   5.75102280  7.55532709  0.08877121
  13.49112191  0.26674228  7.77263239
  13.48701817  7.57979228 15.41038310
   5.81511653 15.24416048  3.98339624
   5.78939314  7.73388427 11.44612743
  13.46101599 15.29026472  3.85772745
  13.49206220 15.38036941 11.51867592
   5.85709937  3.62422640  7.74840383
   5.81222169 11.77739213  0.09085588
   5.82738216 11.37874015  7.81591256
  13.48913946  3.70475551  7.84175514
  13.43161379 11.74842137  0.09552577
  13.45695832 11.35055103  7.81458450
   5.82872697  4.06623225  3.74032380
   5.81567052  3.81784302 11.52752777
   5.81007751 11.69161853  3.73049757
   5.79205176 11.58479990 11.46977658
  13.46983113  4.07031024  3.73289820
  13.49600169  3.87986827 11.46989444
  13.39006526 11.71403232  3.73018241
  15.36661079  1.95713702 15.31438950
   0.13916103  1.94275746  7.67959828
  15.22689156  9.62473047 15.20513118
   0.15227683  9.67241061  7.47309933
   7.66794756  1.91401846 15.28947203
   7.46462142  9.67451447 15.34872817
   7.92714864  9.67159094  7.56758329
  15.17546625  1.97871973  3.94692800
  15.23423064  9.53084594  4.11875182
   0.19730910  9.63209338 11.78932252
   7.54701366  9.64687221  4.02471492
  15.31148521  5.77378113  7.87236111
   7.52003211  5.73184986  7.89742288
   7.45459546 13.55811935  7.80169501
  15.33169975  5.78322241 11.40880333
   0.12016223 13.56744133  3.71986602
  15.38995302 13.49966491 11.40681460
   7.91313661  5.72053560  3.66518136
   7.64040233  5.76214190 11.40365560
   7.80573524 13.51069025  3.70323029
   7.71285149 13.50517690 11.50563741
   3.91265891  1.91489890 15.41426341
   3.72408983  1.91945237  7.73204747
   3.70340159  9.66150114  7.87221639
  11.61066229  1.94036451  0.12754441
  11.82534938  9.64269123  0.12544715
  11.35471646  9.65318850  7.79397610
   4.11170805  1.94693813  3.81233649
   3.83758795  1.92229648 11.59738734
   4.06395378  9.58627360  3.62737145
  11.82171760  1.94683687  3.75043063
  11.68025447  9.62868646  3.75125049
  11.37327301  9.64019034 11.47009443
   3.72848994  5.80190600 15.28515402
   3.67493470 13.44927063 15.38261480
  11.41750766  5.78156709 15.19433507
  11.77179799  5.74615592  7.52864051
  11.34833918 13.48652351  0.02832229
  11.83702791 13.52721559  7.69214066
   3.97349118  5.80219832 11.75630951
   3.75730243 13.49789333  3.94247224
   3.86528594 13.46689524 11.59670615
  11.34757735  5.76291096  4.12401470
  11.69706155  5.77011907 11.73998536
  11.39646092 13.50522400  3.85779093
  11.62899382 13.50167729 11.55598822
 


--------------------------------------------------------------------------------------------------------


 k-point  1 :   0.2500 0.2500 0.2500  plane waves:   93161
 k-point  2 :  -0.2500 0.2500 0.2500  plane waves:   93161
 k-point  3 :   0.2500-0.2500 0.2500  plane waves:   93161
 k-point  4 :  -0.2500-0.2500 0.2500  plane waves:   93161

 maximum and minimum number of plane-waves per node :     11686    11606

 maximum number of plane-waves:     93161
 maximum index in each direction: 
   IXMAX=   28   IYMAX=   28   IZMAX=   27
   IXMIN=  -28   IYMIN=  -28   IZMIN=  -28


 real space projection operators:
  total allocation   :     105588.75 KBytes
  max/ min on nodes  :      13250.38      13154.90


 parallel 3D FFT for wavefunctions:
    minimum data exchange during FFTs selected (reduces bandwidth)
 parallel 3D FFT for charge:
    minimum data exchange during FFTs selected (reduces bandwidth)


 total amount of memory used by VASP MPI-rank0   291497. kBytes
=======================================================================

   base      :      30000. kBytes
   nonlr-proj:      49462. kBytes
   fftplans  :      27976. kBytes
   grid      :      34041. kBytes
   one-center:       1026. kBytes
   wavefun   :     148992. kBytes
 
     INWAV:  cpu time   52.9432: real time   53.9269
 Broyden mixing: mesh for mixing (old mesh)
   NGX = 57   NGY = 57   NGZ = 57
  (NGX  =240   NGY  =240   NGZ  =240)
  gives a total of 185193 points

 charge density for first step will be calculated from the start-wavefunctions


--------------------------------------------------------------------------------------------------------


 Maximum index for non-local projection operator          968
 Maximum index for augmentation-charges         3291 (set IRDMAX)


--------------------------------------------------------------------------------------------------------


 initial charge from wavefunction
 First call to EWALD:  gamma=   0.115
 Maximum number of real-space cells 3x 3x 3
 Maximum number of reciprocal cells 3x 3x 3

    FEWALD:  cpu time    0.0266: real time    0.0271


--------------------------------------- Iteration      1(   1)  ---------------------------------------


    POTLOK:  cpu time    0.2725: real time    0.2895
    SETDIJ:  cpu time    1.2147: real time    1.3730
     EDDAV:  cpu time  134.3288: real time  135.3859
       DOS:  cpu time    0.0034: real time    0.0107
    CHARGE:  cpu time    5.2534: real time    5.2584
    MIXING:  cpu time    0.0261: real time    0.0288
    --------------------------------------------
      LOOP:  cpu time  141.0990: real time  142.3464

 eigenvalue-minimisations  : 23460
 total energy-change (2. order) :-0.1844515E+04  (-0.3630368E+03)
 number of electron    1923.0000031 magnetization       1.0000000
 augmentation part      503.8533593 magnetization       0.6926007

 Broyden mixing:
  rms(total) = 0.78890E+01    rms(broyden)= 0.78861E+01
  rms(prec ) = 0.12016E+02
  weight for this iteration     100.00

 Free energy of the ion-electron system (eV)
  ---------------------------------------------------
  alpha Z        PSCENC =      6118.73324990
  Ewald energy   TEWEN  =   -103699.81049102
  -Hartree energ DENC   =    -64934.81247436
  -exchange      EXHF   =         0.00000000
  -V(xc)+E(xc)   XCENC  =      8956.74874306
  PAW double counting   =    197421.88085121  -198415.62787807
  entropy T*S    EENTRO =        -0.00890091
  eigenvalues    EBANDS =    -25868.87081619
  atomic energy  EATOM  =    178577.25249613
  Solvation  Ediel_sol  =         0.00000000
  ---------------------------------------------------
  free energy    TOTEN  =     -1844.51522023 eV

  energy without entropy =    -1844.50631932  energy(sigma->0) =    -1844.51076978


--------------------------------------------------------------------------------------------------------




--------------------------------------- Iteration      1(   2)  ---------------------------------------


    POTLOK:  cpu time    0.3379: real time    0.3404
    SETDIJ:  cpu time    1.4211: real time    1.4225
     EDDAV:  cpu time  149.1970: real time  150.1738
       DOS:  cpu time    0.0029: real time    0.0029
    CHARGE:  cpu time    5.2726: real time    5.2776
    MIXING:  cpu time    0.0137: real time    0.0144
    --------------------------------------------
      LOOP:  cpu time  156.2452: real time  157.2316

 eigenvalue-minimisations  : 26772
 total energy-change (2. order) : 0.4504196E+00  (-0.2989790E+03)
 number of electron    1923.0000031 magnetization       1.0000000
 augmentation part      504.1077880 magnetization       0.4812337

 Broyden mixing:
  rms(total) = 0.88540E+01    rms(broyden)= 0.88504E+01
  rms(prec ) = 0.12793E+02
  weight for this iteration     100.00

 eigenvalues of (default mixing * dielectric matrix)
  average eigenvalue GAMMA=   0.4470
  0.4470

 Free energy of the ion-electron system (eV)
  ---------------------------------------------------
  alpha Z        PSCENC =      6118.73324990
  Ewald energy   TEWEN  =   -103699.81049102
  -Hartree energ DENC   =    -64991.00921261
  -exchange      EXHF   =         0.00000000
  -V(xc)+E(xc)   XCENC  =      8956.57009877
  PAW double counting   =    199173.04387014  -200141.40503817
  entropy T*S    EENTRO =        -0.00272463
  eigenvalues    EBANDS =    -25837.43704909
  atomic energy  EATOM  =    178577.25249613
  Solvation  Ediel_sol  =         0.00000000
  ---------------------------------------------------
  free energy    TOTEN  =     -1844.06480059 eV

  energy without entropy =    -1844.06207595  energy(sigma->0) =    -1844.06343827


--------------------------------------------------------------------------------------------------------




--------------------------------------- Iteration      1(   3)  ---------------------------------------


    POTLOK:  cpu time    0.2803: real time    0.2824
    SETDIJ:  cpu time    1.4335: real time    1.4444
     EDDAV:  cpu time  151.9114: real time  152.8397
       DOS:  cpu time    0.0023: real time    0.0023
    CHARGE:  cpu time    5.2538: real time    5.2696
    MIXING:  cpu time    0.0097: real time    0.0097
    --------------------------------------------
      LOOP:  cpu time  158.8911: real time  159.8482

 eigenvalue-minimisations  : 27408
 total energy-change (2. order) : 0.5688896E+01  (-0.1159201E+03)
 number of electron    1923.0000031 magnetization       1.0000000
 augmentation part      492.8458747 magnetization       0.6200995

 Broyden mixing:
  rms(total) = 0.52589E+01    rms(broyden)= 0.52570E+01
  rms(prec ) = 0.60636E+01
  weight for this iteration     100.00

 eigenvalues of (default mixing * dielectric matrix)
  average eigenvalue GAMMA=   0.4690
  0.4690  0.4690

 Free energy of the ion-electron system (eV)
  ---------------------------------------------------
  alpha Z        PSCENC =      6118.73324990
  Ewald energy   TEWEN  =   -103699.81049102
  -Hartree energ DENC   =    -65067.12533890
  -exchange      EXHF   =         0.00000000
  -V(xc)+E(xc)   XCENC  =      8959.05672422
  PAW double counting   =    199199.54300889  -200165.15248806
  entropy T*S    EENTRO =        -0.00111722
  eigenvalues    EBANDS =    -25760.87194828
  atomic energy  EATOM  =    178577.25249613
  Solvation  Ediel_sol  =         0.00000000
  ---------------------------------------------------
  free energy    TOTEN  =     -1838.37590434 eV

  energy without entropy =    -1838.37478711  energy(sigma->0) =    -1838.37534573


--------------------------------------------------------------------------------------------------------




--------------------------------------- Iteration      1(   4)  ---------------------------------------


    POTLOK:  cpu time    0.2792: real time    0.2814
    SETDIJ:  cpu time    1.4090: real time    1.4100
     EDDAV:  cpu time  143.1671: real time  144.1498
       DOS:  cpu time    0.0023: real time    0.0023
    CHARGE:  cpu time    5.1481: real time    5.2686
    MIXING:  cpu time    0.0149: real time    0.0157
    --------------------------------------------
      LOOP:  cpu time  150.0206: real time  151.1280

 eigenvalue-minimisations  : 25392
 total energy-change (2. order) : 0.3808489E+02  (-0.2791733E+02)
 number of electron    1923.0000031 magnetization       1.0000000
 augmentation part      494.0350082 magnetization       0.6105627

 Broyden mixing:
  rms(total) = 0.38193E+01    rms(broyden)= 0.38185E+01
  rms(prec ) = 0.44437E+01
  weight for this iteration     100.00

 eigenvalues of (default mixing * dielectric matrix)
  average eigenvalue GAMMA=   0.5587
  0.6014  0.6014  0.4732

 Free energy of the ion-electron system (eV)
  ---------------------------------------------------
  alpha Z        PSCENC =      6118.73324990
  Ewald energy   TEWEN  =   -103699.81049102
  -Hartree energ DENC   =    -65033.50259990
  -exchange      EXHF   =         0.00000000
  -V(xc)+E(xc)   XCENC  =      8964.43586427
  PAW double counting   =    199269.64922657  -200250.95198807
  entropy T*S    EENTRO =        -0.00204474
  eigenvalues    EBANDS =    -25746.09472866
  atomic energy  EATOM  =    178577.25249613
  Solvation  Ediel_sol  =         0.00000000
  ---------------------------------------------------
  free energy    TOTEN  =     -1800.29101552 eV

  energy without entropy =    -1800.28897078  energy(sigma->0) =    -1800.28999315


--------------------------------------------------------------------------------------------------------




--------------------------------------- Iteration      1(   5)  ---------------------------------------


    POTLOK:  cpu time    0.2860: real time    0.2914
    SETDIJ:  cpu time    1.4456: real time    1.4690
     EDDAV:  cpu time  149.7861: real time  150.6874
       DOS:  cpu time    0.0018: real time    0.0017
    CHARGE:  cpu time    5.1816: real time    5.2587
    MIXING:  cpu time    0.0127: real time    0.0127
    --------------------------------------------
      LOOP:  cpu time  156.7138: real time  157.7208

 eigenvalue-minimisations  : 26952
 total energy-change (2. order) : 0.2761633E+02  (-0.7500986E+01)
 number of electron    1923.0000031 magnetization       1.0000000
 augmentation part      494.4923894 magnetization       0.6208594

 Broyden mixing:
  rms(total) = 0.23830E+01    rms(broyden)= 0.23825E+01
  rms(prec ) = 0.27785E+01
  weight for this iteration     100.00

 eigenvalues of (default mixing * dielectric matrix)
  average eigenvalue GAMMA=   0.6145
  0.7651  0.7651  0.4639  0.4639

 Free energy of the ion-electron system (eV)
  ---------------------------------------------------
  alpha Z        PSCENC =      6118.73324990
  Ewald energy   TEWEN  =   -103699.81049102
  -Hartree energ DENC   =    -65035.06324553
  -exchange      EXHF   =         0.00000000
  -V(xc)+E(xc)   XCENC  =      8968.40291291
  PAW double counting   =    198837.46583109  -199830.04300438
  entropy T*S    EENTRO =        -0.00000000
  eigenvalues    EBANDS =    -25709.61243554
  atomic energy  EATOM  =    178577.25249613
  Solvation  Ediel_sol  =         0.00000000
  ---------------------------------------------------
  free energy    TOTEN  =     -1772.67468644 eV

  energy without entropy =    -1772.67468644  energy(sigma->0) =    -1772.67468644


--------------------------------------------------------------------------------------------------------




--------------------------------------- Iteration      1(   6)  ---------------------------------------


    POTLOK:  cpu time    0.2606: real time    0.2699
    SETDIJ:  cpu time    1.4194: real time    1.4327
     EDDAV:  cpu time  149.9815: real time  150.8093
       DOS:  cpu time    0.0018: real time    0.0018
    CHARGE:  cpu time    5.2910: real time    5.2948
    MIXING:  cpu time    0.0081: real time    0.0081
    --------------------------------------------
      LOOP:  cpu time  156.9625: real time  157.8166

 eigenvalue-minimisations  : 26748
 total energy-change (2. order) : 0.1126852E+02  (-0.3912095E+01)
 number of electron    1923.0000031 magnetization       1.0000000
 augmentation part      495.3225127 magnetization       0.5667217

 Broyden mixing:
  rms(total) = 0.14140E+01    rms(broyden)= 0.14137E+01
  rms(prec ) = 0.15795E+01
  weight for this iteration     100.00

 eigenvalues of (default mixing * dielectric matrix)
  average eigenvalue GAMMA=   0.6899
  0.9442  0.9442  0.5542  0.5542  0.4526

 Free energy of the ion-electron system (eV)
  ---------------------------------------------------
  alpha Z        PSCENC =      6118.73324990
  Ewald energy   TEWEN  =   -103699.81049102
  -Hartree energ DENC   =    -64999.18733545
  -exchange      EXHF   =         0.00000000
  -V(xc)+E(xc)   XCENC  =      8969.31459388
  PAW double counting   =    198461.80546217  -199460.40419601
  entropy T*S    EENTRO =        -0.00000000
  eigenvalues    EBANDS =    -25729.10994406
  atomic energy  EATOM  =    178577.25249613
  Solvation  Ediel_sol  =         0.00000000
  ---------------------------------------------------
  free energy    TOTEN  =     -1761.40616447 eV

  energy without entropy =    -1761.40616447  energy(sigma->0) =    -1761.40616447


--------------------------------------------------------------------------------------------------------




--------------------------------------- Iteration      1(   7)  ---------------------------------------


    POTLOK:  cpu time    0.2604: real time    0.2632
    SETDIJ:  cpu time    1.3695: real time    1.4604
     EDDAV:  cpu time  153.0103: real time  153.9581
       DOS:  cpu time    0.0019: real time    0.0019
    CHARGE:  cpu time    5.2558: real time    5.3144
    MIXING:  cpu time    0.0137: real time    0.0137
    --------------------------------------------
      LOOP:  cpu time  159.9116: real time  161.0117

 eigenvalue-minimisations  : 27732
 total energy-change (2. order) : 0.2755197E+01  (-0.1020794E+01)
 number of electron    1923.0000031 magnetization       1.0000000
 augmentation part      496.2756459 magnetization       0.5828520

 Broyden mixing:
  rms(total) = 0.10299E+01    rms(broyden)= 0.10295E+01
  rms(prec ) = 0.10802E+01
  weight for this iteration     100.00

 eigenvalues of (default mixing * dielectric matrix)
  average eigenvalue GAMMA=   0.8069
  1.2274  1.2274  0.6758  0.6758  0.5175  0.5175

 Free energy of the ion-electron system (eV)
  ---------------------------------------------------
  alpha Z        PSCENC =      6118.73324990
  Ewald energy   TEWEN  =   -103699.81049102
  -Hartree energ DENC   =    -64959.86139018
  -exchange      EXHF   =         0.00000000
  -V(xc)+E(xc)   XCENC  =      8968.35775560
  PAW double counting   =    198105.74420787  -199108.26717206
  entropy T*S    EENTRO =        -0.00000000
  eigenvalues    EBANDS =    -25760.79962396
  atomic energy  EATOM  =    178577.25249613
  Solvation  Ediel_sol  =         0.00000000
  ---------------------------------------------------
  free energy    TOTEN  =     -1758.65096771 eV

  energy without entropy =    -1758.65096771  energy(sigma->0) =    -1758.65096771


--------------------------------------------------------------------------------------------------------




--------------------------------------- Iteration      1(   8)  ---------------------------------------


    POTLOK:  cpu time    0.2636: real time    0.2701
    SETDIJ:  cpu time    1.3794: real time    1.3977
     EDDAV:  cpu time  147.3037: real time  148.6143
       DOS:  cpu time    0.0019: real time    0.0019
    CHARGE:  cpu time    5.2773: real time    5.2814
    MIXING:  cpu time    0.0090: real time    0.0090
    --------------------------------------------
      LOOP:  cpu time  154.2349: real time  155.5743

 eigenvalue-minimisations  : 26472
 total energy-change (2. order) :-0.6168347E+00  (-0.1124676E+01)
[...]
   81        1.574   3.460   0.000   5.034
   82        1.574   3.459   0.000   5.034
   83        1.574   3.459   0.000   5.032
   84        1.576   3.469   0.000   5.045
   85        1.576   3.471   0.000   5.047
   86        1.576   3.472   0.000   5.048
   87        1.576   3.463   0.000   5.038
   88        1.575   3.465   0.000   5.040
   89        1.574   3.459   0.000   5.033
   90        1.575   3.456   0.000   5.031
   91        1.574   3.459   0.000   5.033
   92        1.574   3.458   0.000   5.032
   93        1.578   3.467   0.000   5.044
   94        1.577   3.473   0.000   5.050
   95        1.576   3.469   0.000   5.045
   96        1.575   3.463   0.000   5.038
   97        1.570   3.477   0.000   5.046
   98        1.576   3.468   0.000   5.044
   99        1.575   3.463   0.000   5.038
  100        1.576   3.460   0.000   5.037
  101        1.574   3.456   0.000   5.030
  102        1.575   3.458   0.000   5.032
  103        1.575   3.457   0.000   5.032
  104        1.574   3.459   0.000   5.033
  105        1.577   3.471   0.000   5.048
  106        1.575   3.461   0.000   5.036
  107        1.575   3.460   0.000   5.035
  108        1.576   3.472   0.000   5.048
  109        1.575   3.461   0.000   5.035
  110        1.575   3.458   0.000   5.033
  111        1.576   3.472   0.000   5.048
  112        1.577   3.458   0.000   5.035
  113        1.576   3.472   0.000   5.048
  114        1.577   3.468   0.000   5.045
  115        1.574   3.464   0.000   5.038
  116        1.575   3.462   0.000   5.036
  117        1.575   3.458   0.000   5.033
  118        1.575   3.460   0.000   5.035
  119        1.576   3.471   0.000   5.047
  120        1.575   3.456   0.000   5.031
  121        1.574   3.459   0.000   5.033
  122        1.578   3.462   0.000   5.040
  123        1.576   3.472   0.000   5.048
  124        1.576   3.466   0.000   5.042
  125        1.576   3.474   0.000   5.050
  126        1.576   3.470   0.000   5.045
  127        1.575   3.456   0.000   5.030
  128        1.574   3.459   0.000   5.033
  129        1.577   3.465   0.000   5.042
  130        1.737   4.368   0.000   6.104
  131        1.736   4.368   0.000   6.104
  132        1.737   4.374   0.000   6.112
  133        1.738   4.384   0.000   6.122
  134        1.738   4.382   0.000   6.120
  135        1.737   4.366   0.000   6.103
  136        1.736   4.365   0.000   6.101
  137        1.738   4.376   0.000   6.114
  138        1.738   4.377   0.000   6.115
  139        1.739   4.383   0.000   6.122
  140        1.739   4.384   0.000   6.122
  141        1.738   4.376   0.000   6.114
  142        1.737   4.379   0.000   6.116
  143        1.738   4.383   0.000   6.121
  144        1.738   4.384   0.000   6.122
  145        1.738   4.380   0.000   6.118
  146        1.737   4.378   0.000   6.115
  147        1.736   4.377   0.000   6.113
  148        1.736   4.367   0.000   6.103
  149        1.739   4.381   0.000   6.120
  150        1.738   4.385   0.000   6.124
  151        1.738   4.373   0.000   6.111
  152        1.737   4.377   0.000   6.115
  153        1.737   4.380   0.000   6.117
  154        1.737   4.370   0.000   6.107
  155        1.737   4.370   0.000   6.107
  156        1.737   4.369   0.000   6.105
  157        1.737   4.366   0.000   6.103
  158        1.738   4.373   0.000   6.111
  159        1.738   4.375   0.000   6.112
  160        1.737   4.366   0.000   6.103
  161        1.736   4.368   0.000   6.104
  162        1.736   4.380   0.000   6.116
  163        1.737   4.373   0.000   6.110
  164        1.737   4.376   0.000   6.113
  165        1.737   4.369   0.000   6.106
  166        1.736   4.368   0.000   6.104
  167        1.737   4.367   0.000   6.104
  168        1.737   4.368   0.000   6.105
  169        1.738   4.373   0.000   6.111
  170        1.737   4.377   0.000   6.114
  171        1.737   4.367   0.000   6.104
  172        1.738   4.386   0.000   6.123
  173        1.737   4.368   0.000   6.105
  174        1.737   4.366   0.000   6.103
  175        1.739   4.378   0.000   6.116
  176        1.736   4.364   0.000   6.101
  177        1.737   4.378   0.000   6.116
  178        1.736   4.363   0.000   6.099
  179        1.738   4.376   0.000   6.113
  180        1.738   4.377   0.000   6.115
  181        1.736   4.367   0.000   6.103
  182        1.738   4.377   0.000   6.114
  183        1.737   4.366   0.000   6.102
  184        1.737   4.378   0.000   6.115
  185        1.736   4.385   0.000   6.121
  186        1.737   4.378   0.000   6.115
  187        1.736   4.367   0.000   6.103
  188        1.738   4.373   0.000   6.110
  189        1.738   4.380   0.000   6.118
  190        1.738   4.379   0.000   6.117
  191        1.739   4.382   0.000   6.121
  192        1.737   4.368   0.000   6.104
  193        1.738   4.384   0.000   6.123
  194        1.736   4.366   0.000   6.102
  195        1.737   4.366   0.000   6.103
  196        1.737   4.381   0.000   6.118
  197        1.737   4.364   0.000   6.101
  198        1.737   4.380   0.000   6.117
  199        1.738   4.377   0.000   6.114
  200        1.739   4.380   0.000   6.118
  201        1.738   4.376   0.000   6.114
  202        1.738   4.375   0.000   6.113
  203        1.738   4.380   0.000   6.118
  204        1.738   4.374   0.000   6.111
  205        1.737   4.373   0.000   6.110
  206        1.736   4.368   0.000   6.104
  207        1.737   4.369   0.000   6.107
  208        1.737   4.381   0.000   6.118
  209        1.737   4.372   0.000   6.109
  210        1.736   4.369   0.000   6.106
  211        1.737   4.375   0.000   6.112
  212        1.736   4.364   0.000   6.101
  213        1.738   4.373   0.000   6.111
  214        1.736   4.363   0.000   6.099
  215        1.738   4.374   0.000   6.112
  216        1.736   4.364   0.000   6.100
  217        1.736   4.363   0.000   6.100
  218        1.737   4.375   0.000   6.112
  219        1.738   4.375   0.000   6.113
  220        1.737   4.378   0.000   6.115
  221        1.738   4.377   0.000   6.115
  222        1.737   4.376   0.000   6.113
  223        1.737   4.377   0.000   6.115
  224        1.738   4.376   0.000   6.113
  225        1.737   4.374   0.000   6.112
  226        1.738   4.376   0.000   6.114
  227        1.737   4.378   0.000   6.115
  228        1.737   4.375   0.000   6.112
  229        1.737   4.374   0.000   6.111
  230        1.737   4.368   0.000   6.104
  231        1.737   4.373   0.000   6.110
  232        1.736   4.368   0.000   6.104
  233        1.737   4.379   0.000   6.117
  234        1.736   4.366   0.000   6.102
  235        1.737   4.365   0.000   6.102
  236        1.738   4.386   0.000   6.124
  237        1.739   4.382   0.000   6.121
  238        1.737   4.376   0.000   6.113
  239        1.738   4.374   0.000   6.112
  240        1.737   4.380   0.000   6.117
  241        1.737   4.374   0.000   6.111
  242        1.738   4.382   0.000   6.120
  243        1.738   4.384   0.000   6.122
  244        1.738   4.378   0.000   6.116
  245        1.738   4.376   0.000   6.113
  246        1.737   4.376   0.000   6.113
  247        1.738   4.382   0.000   6.121
  248        1.738   4.374   0.000   6.112
  249        1.738   4.383   0.000   6.121
  250        1.738   4.373   0.000   6.110
  251        1.738   4.378   0.000   6.116
  252        1.736   4.378   0.000   6.115
  253        1.738   4.378   0.000   6.116
  254        1.739   4.382   0.000   6.121
  255        1.738   4.375   0.000   6.113
  256        1.738   4.384   0.000   6.123
  257        1.738   4.378   0.000   6.116
--------------------------------------------------
tot        345.3811194.661 112.0961652.138
 


 magnetization (x)
 
# of ion       s       p       d       tot
------------------------------------------
    1       -0.000  -0.000   0.000  -0.000
    2        0.000  -0.000  -0.000  -0.000
    3       -0.000  -0.000  -0.000  -0.000
    4       -0.000   0.000  -0.000  -0.000
    5       -0.000  -0.000   0.000   0.000
    6       -0.000  -0.000   0.000   0.000
    7       -0.000  -0.000   0.000   0.000
    8       -0.000  -0.000  -0.000  -0.000
    9       -0.000  -0.000  -0.000  -0.000
   10       -0.000   0.000   0.009   0.009
   11       -0.000  -0.000  -0.000  -0.000
   12       -0.000  -0.000   0.007   0.007
   13       -0.000  -0.000  -0.000  -0.000
   14        0.000   0.000   0.000   0.000
   15       -0.000  -0.000  -0.000  -0.000
   16        0.000   0.000   0.000   0.000
   17       -0.000  -0.000  -0.000  -0.000
   18       -0.000   0.000  -0.000  -0.000
   19       -0.000  -0.000   0.000   0.000
   20       -0.000  -0.000  -0.002  -0.002
   21       -0.000  -0.000  -0.000  -0.000
   22       -0.000  -0.000  -0.000  -0.000
   23       -0.000  -0.000  -0.000  -0.000
   24       -0.000  -0.000   0.000   0.000
   25        0.000  -0.000   0.000   0.000
   26       -0.000  -0.000   0.001   0.001
   27        0.000   0.000  -0.000  -0.000
   28        0.005   0.006   0.885   0.896
   29       -0.000  -0.000  -0.000  -0.000
   30        0.000   0.000   0.000   0.000
   31       -0.000  -0.000  -0.000  -0.000
   32        0.000  -0.000   0.002   0.002
   33        0.000   0.000   0.000   0.000
   34       -0.000  -0.000  -0.000  -0.000
   35       -0.000  -0.000  -0.000  -0.000
   36       -0.000   0.000   0.000   0.000
   37       -0.000  -0.000  -0.000  -0.000
   38       -0.000  -0.000   0.000   0.000
   39       -0.000  -0.000  -0.000  -0.000
   40       -0.000  -0.000  -0.000  -0.000
   41       -0.000  -0.000  -0.000  -0.000
   42        0.000   0.000   0.004   0.004
   43       -0.000  -0.000  -0.000  -0.000
   44       -0.000  -0.000   0.001   0.001
   45       -0.000   0.000  -0.000  -0.000
   46        0.000   0.000   0.001   0.001
   47       -0.000  -0.000  -0.000  -0.000
   48        0.000   0.000   0.003   0.003
   49       -0.000  -0.000  -0.000  -0.000
   50       -0.000  -0.000   0.000   0.000
   51        0.000  -0.000   0.000   0.000
   52       -0.000  -0.000   0.000   0.000
   53       -0.000  -0.000   0.000   0.000
   54       -0.000  -0.000  -0.000  -0.000
   55        0.000   0.000   0.000   0.000
   56        0.000  -0.000   0.000   0.000
   57       -0.000  -0.000  -0.000  -0.000
   58        0.000   0.000   0.000   0.000
   59       -0.000  -0.000  -0.000  -0.000
   60        0.000   0.001   0.060   0.061
   61       -0.000  -0.000   0.000   0.000
   62        0.000   0.000   0.000   0.000
   63       -0.000  -0.000  -0.000  -0.000
   64        0.000   0.000   0.013   0.013
   65       -0.000  -0.000   0.000   0.000
   66       -0.000  -0.000   0.000  -0.000
   67       -0.000  -0.000   0.000  -0.000
   68       -0.000  -0.000   0.000  -0.000
   69       -0.000  -0.000   0.000  -0.000
   70        0.000   0.000   0.000   0.000
   71       -0.001  -0.014   0.000  -0.015
   72       -0.000  -0.000   0.000  -0.000
   73       -0.000  -0.000   0.000  -0.000
   74       -0.000  -0.000   0.000  -0.000
   75       -0.000  -0.000   0.000  -0.000
   76       -0.000  -0.000   0.000  -0.000
   77       -0.000   0.000   0.000   0.000
   78       -0.000  -0.000   0.000  -0.000
   79        0.000   0.000   0.000   0.000
   80       -0.000  -0.000   0.000  -0.000
   81        0.000   0.000   0.000   0.000
   82       -0.000  -0.000   0.000  -0.000
   83        0.000   0.000   0.000   0.000
   84       -0.000  -0.000   0.000  -0.000
   85       -0.000  -0.002   0.000  -0.002
   86       -0.000  -0.000   0.000  -0.000
   87       -0.000  -0.001   0.000  -0.001
   88       -0.000  -0.000   0.000  -0.000
   89        0.000  -0.000   0.000  -0.000
   90       -0.000  -0.000   0.000  -0.000
   91       -0.000  -0.002   0.000  -0.002
   92       -0.000  -0.000   0.000  -0.000
   93        0.000   0.000   0.000   0.000
   94       -0.000  -0.000   0.000  -0.000
   95       -0.000  -0.000   0.000  -0.000
   96        0.000   0.000   0.000   0.000
   97       -0.001  -0.027   0.000  -0.028
   98       -0.000  -0.000   0.000  -0.000
   99        0.000   0.000   0.000   0.000
  100       -0.000  -0.001   0.000  -0.001
  101       -0.000  -0.000   0.000  -0.000
  102        0.000   0.000   0.000   0.000
  103       -0.000   0.000   0.000   0.000
  104        0.000   0.000   0.000   0.000
  105        0.000   0.000   0.000   0.000
  106        0.000  -0.000   0.000  -0.000
  107       -0.000  -0.001   0.000  -0.001
  108        0.000   0.000   0.000   0.000
  109       -0.000  -0.000   0.000  -0.000
  110        0.000  -0.000   0.000  -0.000
  111       -0.000  -0.000   0.000  -0.000
  112        0.000   0.000   0.000   0.000
  113       -0.000  -0.000   0.000  -0.000
  114       -0.000  -0.000   0.000  -0.000
  115        0.000   0.000   0.000   0.000
  116        0.000   0.000   0.000   0.000
  117       -0.000  -0.000   0.000  -0.000
  118       -0.000  -0.000   0.000  -0.000
  119       -0.000  -0.000   0.000  -0.000
  120        0.000   0.000   0.000   0.000
  121       -0.000  -0.000   0.000  -0.000
  122       -0.000  -0.001   0.000  -0.001
  123       -0.000  -0.000   0.000  -0.000
  124        0.000  -0.000   0.000  -0.000
  125       -0.000  -0.000   0.000  -0.000
  126        0.000   0.000   0.000   0.000
  127        0.000  -0.000   0.000  -0.000
  128       -0.000  -0.000   0.000  -0.000
  129       -0.000  -0.000   0.000  -0.000
  130       -0.000  -0.000   0.000  -0.000
  131       -0.000  -0.000   0.000  -0.000
  132       -0.000  -0.000   0.000  -0.000
  133       -0.000  -0.000   0.000  -0.000
  134        0.000   0.000   0.000   0.000
  135       -0.000  -0.000   0.000  -0.000
  136        0.000   0.000   0.000   0.000
  137       -0.000  -0.000   0.000  -0.000
  138       -0.000  -0.000   0.000  -0.000
  139       -0.000  -0.000   0.000  -0.000
  140        0.000   0.000   0.000   0.000
  141       -0.000  -0.000   0.000  -0.000
  142       -0.000  -0.000   0.000  -0.000
  143       -0.000  -0.000   0.000  -0.000
  144        0.000   0.000   0.000   0.000
  145       -0.000  -0.000   0.000  -0.000
  146        0.000  -0.000   0.000  -0.000
  147       -0.000  -0.006   0.000  -0.006
  148       -0.000  -0.000   0.000  -0.000
  149       -0.000  -0.000   0.000  -0.000
  150        0.000   0.000   0.000   0.000
  151       -0.000  -0.000   0.000  -0.000
  152       -0.000  -0.000   0.000  -0.000
  153       -0.000  -0.000   0.000  -0.000
  154       -0.000  -0.000   0.000  -0.000
  155       -0.000  -0.000   0.000  -0.000
  156       -0.000  -0.000   0.000  -0.000
  157       -0.000  -0.000   0.000  -0.000
  158       -0.000  -0.000   0.000  -0.000
  159        0.000  -0.000   0.000   0.000
  160       -0.000  -0.000   0.000  -0.000
  161       -0.000  -0.000   0.000  -0.000
  162       -0.000  -0.000   0.000  -0.000
  163       -0.000  -0.000   0.000  -0.000
  164       -0.000   0.000   0.000   0.000
  165       -0.000  -0.000   0.000  -0.000
  166       -0.000  -0.000   0.000  -0.000
  167       -0.000  -0.000   0.000  -0.000
  168        0.000  -0.000   0.000  -0.000
  169       -0.000  -0.000   0.000  -0.000
  170        0.000   0.000   0.000   0.000
  171       -0.000  -0.000   0.000  -0.000
  172       -0.000  -0.000   0.000  -0.000
  173       -0.000  -0.000   0.000  -0.000
  174        0.000   0.000   0.000   0.000
  175        0.000   0.000   0.000   0.000
  176        0.000   0.000   0.000   0.000
  177        0.000  -0.000   0.000  -0.000
  178        0.000   0.000   0.000   0.000
  179       -0.000   0.000   0.000   0.000
  180        0.000   0.000   0.000   0.000
  181       -0.000  -0.000   0.000  -0.000
  182        0.000   0.000   0.000   0.000
  183       -0.000  -0.000   0.000  -0.000
  184       -0.000  -0.000   0.000  -0.000
  185       -0.000  -0.000   0.000  -0.000
  186       -0.000  -0.000   0.000  -0.000
  187        0.000   0.000   0.000   0.000
  188       -0.000  -0.000   0.000  -0.000
  189       -0.000  -0.000   0.000  -0.000
  190       -0.000  -0.000   0.000  -0.000
  191        0.000  -0.000   0.000   0.000
  192        0.000   0.000   0.000   0.000
  193       -0.000  -0.000   0.000  -0.000
  194        0.000  -0.000   0.000  -0.000
  195        0.000   0.000   0.000   0.000
  196        0.000   0.000   0.000   0.000
  197        0.000  -0.000   0.000  -0.000
  198        0.000   0.000   0.000   0.000
  199        0.000   0.000   0.000   0.000
  200       -0.000  -0.000   0.000  -0.000
  201       -0.000  -0.000   0.000  -0.000
  202       -0.000  -0.000   0.000  -0.000
  203       -0.000  -0.000   0.000  -0.000
  204       -0.000  -0.000   0.000  -0.000
  205       -0.000  -0.000   0.000  -0.000
  206        0.000   0.000   0.000   0.000
  207       -0.000  -0.000   0.000  -0.000
  208       -0.000  -0.000   0.000  -0.000
  209       -0.000  -0.000   0.000  -0.000
  210        0.000  -0.000   0.000  -0.000
  211       -0.000  -0.001   0.000  -0.001
  212       -0.000  -0.000   0.000  -0.000
  213       -0.000  -0.000   0.000  -0.000
  214       -0.000  -0.000   0.000  -0.000
  215       -0.000  -0.000   0.000  -0.000
  216        0.000   0.000   0.000   0.000
  217       -0.000  -0.000   0.000  -0.000
  218        0.000  -0.000   0.000  -0.000
  219       -0.000  -0.000   0.000  -0.000
  220       -0.000   0.002   0.000   0.001
  221       -0.000  -0.000   0.000  -0.000
  222       -0.000  -0.000   0.000  -0.000
  223       -0.000  -0.000   0.000  -0.000
  224        0.000   0.000   0.000   0.000
  225        0.000  -0.000   0.000  -0.000
  226        0.000  -0.000   0.000  -0.000
  227       -0.000   0.001   0.000   0.000
  228        0.000  -0.000   0.000  -0.000
  229       -0.000  -0.000   0.000  -0.000
  230        0.000   0.000   0.000   0.000
  231       -0.000  -0.000   0.000  -0.000
  232       -0.000   0.000   0.000   0.000
  233       -0.000  -0.000   0.000  -0.000
  234       -0.000  -0.000   0.000  -0.000
  235       -0.000  -0.000   0.000  -0.000
  236        0.000   0.000   0.000   0.000
  237       -0.000  -0.000   0.000  -0.000
  238       -0.000  -0.000   0.000  -0.000
  239       -0.000  -0.000   0.000  -0.000
  240        0.000  -0.000   0.000  -0.000
  241       -0.000   0.001   0.000   0.001
  242        0.000   0.000   0.000   0.000
  243       -0.000  -0.000   0.000  -0.000
  244        0.000   0.000   0.000   0.000
  245        0.000  -0.000   0.000  -0.000
  246        0.000  -0.000   0.000  -0.000
  247        0.000  -0.000   0.000  -0.000
  248        0.000   0.000   0.000   0.000
  249       -0.000  -0.000   0.000  -0.000
  250       -0.000  -0.000   0.000  -0.000
  251        0.000   0.000   0.000   0.000
  252       -0.000  -0.001   0.000  -0.001
  253       -0.000  -0.000   0.000  -0.000
  254       -0.000  -0.000   0.000  -0.000
  255       -0.000   0.000   0.000   0.000
  256        0.000   0.000   0.000   0.000
  257        0.000  -0.000   0.000  -0.000
--------------------------------------------------
tot          0.001  -0.050   0.986   0.937
 

 total amount of memory used by VASP MPI-rank0   291497. kBytes
=======================================================================

   base      :      30000. kBytes
   nonlr-proj:      49462. kBytes
   fftplans  :      27976. kBytes
   grid      :      34041. kBytes
   one-center:       1026. kBytes
   wavefun   :     148992. kBytes
 
  
  
 General timing and accounting informations for this job:
 ========================================================
  
                  Total CPU time used (sec):     4011.846
                            User time (sec):     3614.313
                          System time (sec):      397.533
                         Elapsed time (sec):     4046.652
  
                   Maximum memory used (kb):      631180.
                   Average memory used (kb):           0.
  
                          Minor page faults:       384590
                          Major page faults:           37
                 Voluntary context switches:        29782
