 vasp.5.4.4.18Apr17-6-g9f103f2a35 (build Apr 30 2017 20:10:35) complex          
  
 executed on             LinuxIFC date 2017.08.05  14:21:02
 running on   64 total cores
 distrk:  each k-point on   64 cores,    1 groups
 distr:  one band on NCORES_PER_BAND=   8 cores,    8 groups


--------------------------------------------------------------------------------------------------------


 INCAR:
 POTCAR:   PAW_PBE Ti_pv 07Sep2000                
 POTCAR:   PAW_PBE O 08Apr2002                    
 POTCAR:    PAW_PBE F 08Apr2002                   
 POTCAR:   PAW_PBE Ti_pv 07Sep2000                
   VRHFIN =Ti: d3 s1                                                            
   LEXCH  = PE                                                                  
   EATOM  =  1042.3781 eV,   76.6126 Ry                                         
                                                                                
   TITEL  = PAW_PBE Ti_pv 07Sep2000                                             
   LULTRA =        F    use ultrasoft PP ?                                      
   IUNSCR =        1    unscreen: 0-lin 1-nonlin 2-no                           
   RPACOR =    2.200    partial core radius                                     
   POMASS =   47.880; ZVAL   =   10.000    mass and valenz                      
   RCORE  =    2.500    outmost cutoff radius                                   
   RWIGS  =    2.500; RWIGS  =    1.323    wigner-seitz radius (au A)           
   ENMAX  =  222.338; ENMIN  =  166.753 eV                                      
   RCLOC  =    1.701    cutoff for local pot                                    
   LCOR   =        T    correct aug charges                                     
   LPAW   =        T    paw PP                                                  
   EAUG   =  482.848                                                            
   DEXC   =    -.008                                                            
   RMAX   =    3.092    core radius for proj-oper                               
   RAUG   =    1.300    factor for augmentation sphere                          
   RDEP   =    2.538    radius for radial grids                                 
   QCUT   =   -4.042; QGAM   =    8.085    optimization parameters              
                                                                                
   Description                                                                  
     l     E      TYP  RCUT    TYP  RCUT                                        
     1   .000     23  2.300                                                     
     1  -.100     23  2.300                                                     
     2   .000     23  2.500                                                     
     2   .000     23  2.500                                                     
     0   .000     23  2.500                                                     
     0  1.500     23  2.500                                                     
     3   .000      7   .000                                                     
  local pseudopotential read in
  partial core-charges read in
  atomic valenz-charges read in
  non local Contribution for L=           1  read in
    real space projection operators read in
  non local Contribution for L=           1  read in
    real space projection operators read in
  non local Contribution for L=           2  read in
    real space projection operators read in
  non local Contribution for L=           2  read in
    real space projection operators read in
  non local Contribution for L=           0  read in
    real space projection operators read in
  non local Contribution for L=           0  read in
    real space projection operators read in
    PAW grid and wavefunctions read in
 
   number of l-projection  operators is LMAX  =           6
   number of lm-projection operators is LMMAX =          18
 
 POTCAR:   PAW_PBE O 08Apr2002                    
   VRHFIN =O: s2p4                                                              
   LEXCH  = PE                                                                  
   EATOM  =   432.3788 eV,   31.7789 Ry                                         
                                                                                
   TITEL  = PAW_PBE O 08Apr2002                                                 
   LULTRA =        F    use ultrasoft PP ?                                      
   IUNSCR =        0    unscreen: 0-lin 1-nonlin 2-no                           
   RPACOR =     .000    partial core radius                                     
   POMASS =   16.000; ZVAL   =    6.000    mass and valenz                      
   RCORE  =    1.520    outmost cutoff radius                                   
   RWIGS  =    1.550; RWIGS  =     .820    wigner-seitz radius (au A)           
   ENMAX  =  400.000; ENMIN  =  300.000 eV                                      
   ICORE  =        2    local potential                                         
   LCOR   =        T    correct aug charges                                     
   LPAW   =        T    paw PP                                                  
   EAUG   =  605.392                                                            
   DEXC   =     .000                                                            
   RMAX   =    2.264    core radius for proj-oper                               
   RAUG   =    1.300    factor for augmentation sphere                          
   RDEP   =    1.550    radius for radial grids                                 
   QCUT   =   -5.520; QGAM   =   11.041    optimization parameters              
                                                                                
   Description                                                                  
     l     E      TYP  RCUT    TYP  RCUT                                        
     0   .000     23  1.200                                                     
     0  -.700     23  1.200                                                     
     1   .000     23  1.520                                                     
     1   .600     23  1.520                                                     
     2   .000      7  1.500                                                     
  local pseudopotential read in
  atomic valenz-charges read in
  non local Contribution for L=           0  read in
    real space projection operators read in
  non local Contribution for L=           0  read in
    real space projection operators read in
  non local Contribution for L=           1  read in
    real space projection operators read in
  non local Contribution for L=           1  read in
    real space projection operators read in
    PAW grid and wavefunctions read in
 
   number of l-projection  operators is LMAX  =           4
   number of lm-projection operators is LMMAX =           8
 
 POTCAR:    PAW_PBE F 08Apr2002                   
   VRHFIN =F: s2p5                                                              
   LEXCH  = PE                                                                  
   EATOM  =   659.6475 eV,   48.4827 Ry                                         
                                                                                
   TITEL  = PAW_PBE F 08Apr2002                                                 
   LULTRA =        F    use ultrasoft PP ?                                      
   IUNSCR =        1    unscreen: 0-lin 1-nonlin 2-no                           
   RPACOR =    1.200    partial core radius                                     
   POMASS =   18.998; ZVAL   =    7.000    mass and valenz                      
   RCORE  =    1.520    outmost cutoff radius                                   
   RWIGS  =    1.500; RWIGS  =    0.794    wigner-seitz radius (au A)           
   ENMAX  =  400.000; ENMIN  =  300.000 eV                                      
   ICORE  =        2    local potential                                         
   LCOR   =        T    correct aug charges                                     
   LPAW   =        T    paw PP                                                  
   EAUG   =  613.614                                                            
   RMAX   =    1.555    core radius for proj-oper                               
   RAUG   =    1.300    factor for augmentation sphere                          
   RDEP   =    1.539    radius for radial grids                                 
   RDEPT  =    1.299    core radius for aug-charge                              
                                                                                
   Atomic configuration                                                         
    4 entries                                                                   
     n  l   j            E        occ.                                          
     1  0  0.50      -663.3661   2.0000                                         
     2  0  0.50       -29.8995   2.0000                                         
     2  1  0.50       -11.1114   5.0000                                         
     3  2  1.50       -10.8847   0.0000                                         
   Description                                                                  
     l       E           TYP  RCUT    TYP  RCUT                                 
     0    -29.8995018     23  1.200                                             
     0     -9.5240782     23  1.200                                             
     1    -11.1113914     23  1.520                                             
     1      1.3605826     23  1.520                                             
     2    -10.8846608      7  1.500                                             
  local pseudopotential read in
  partial core-charges read in
  partial kinetic energy density read in
  atomic valenz-charges read in
  non local Contribution for L=           0  read in
    real space projection operators read in
  non local Contribution for L=           0  read in
    real space projection operators read in
  non local Contribution for L=           1  read in
    real space projection operators read in
  non local Contribution for L=           1  read in
    real space projection operators read in
    PAW grid and wavefunctions read in
 
   number of l-projection  operators is LMAX  =           4
   number of lm-projection operators is LMMAX =           8
 
 Optimization of the real space projectors (new method)

 maximal supplied QI-value         = 15.12
 optimisation between [QCUT,QGAM] = [ 13.45, 27.06] = [ 50.69,205.06] Ry 
 Optimized for a Real-space Cutoff    1.49 Angstroem

   l    n(q)    QCUT    max X(q) W(low)/X(q) W(high)/X(q)  e(spline) 
   1     12    13.455     4.841    0.13E-05    0.83E-06    0.56E-07
   1     12    13.455     5.701    0.32E-04    0.25E-04    0.17E-06
   2     11    13.455     4.569    0.64E-05    0.34E-05    0.50E-07
   2     11    13.455    32.276    0.49E-04    0.38E-04    0.46E-06
   0     12    13.455    30.046    0.17E-04    0.41E-05    0.51E-07
   0     12    13.455    45.433    0.12E-04    0.27E-04    0.38E-06
 Optimization of the real space projectors (new method)

 maximal supplied QI-value         = 24.76
 optimisation between [QCUT,QGAM] = [ 13.37, 26.98] = [ 50.04,203.89] Ry 
 Optimized for a Real-space Cutoff    1.17 Angstroem

   l    n(q)    QCUT    max X(q) W(low)/X(q) W(high)/X(q)  e(spline) 
   0      9    13.368     4.192    0.20E-04    0.58E-05    0.56E-07
   0      9    13.368     8.473    0.60E-04    0.52E-04    0.21E-06
   1      9    13.368     2.474    0.22E-04    0.17E-04    0.28E-07
   1      9    13.368     3.912    0.94E-04    0.97E-04    0.20E-06
 Optimization of the real space projectors (new method)

 maximal supplied QI-value         = 24.76
 optimisation between [QCUT,QGAM] = [ 13.37, 26.98] = [ 50.04,203.89] Ry 
 Optimized for a Real-space Cutoff    1.17 Angstroem

   l    n(q)    QCUT    max X(q) W(low)/X(q) W(high)/X(q)  e(spline) 
   0      9    13.368    14.049    0.39E-04    0.34E-04    0.16E-06
   0      9    13.368     8.945    0.54E-04    0.47E-04    0.20E-06
   1      9    13.368     7.086    0.99E-04    0.10E-03    0.23E-06
   1      9    13.368     6.747    0.86E-04    0.89E-04    0.21E-06

 ----------------------------------------------------------------------------- 
|                                                                             |
|  ADVICE TO THIS USER RUNNING 'VASP/VAMP'   (HEAR YOUR MASTER'S VOICE ...):  |
|                                                                             |
|      You enforced a specific xc-type in the INCAR file,                     |
|      a different type was found on the POTCAR file                          |
|          I HOPE YOU KNOW, WHAT YOU ARE  DOING                               |
|                                                                             |
 ----------------------------------------------------------------------------- 

 PAW_PBE Ti_pv 07Sep2000                :
 energy of atom  1       EATOM=-1042.3781
 kinetic energy error for atom=    0.0006 (will be added to EATOM!!)
 PAW_PBE O 08Apr2002                    :
 energy of atom  2       EATOM= -432.3788
 kinetic energy error for atom=    0.0091 (will be added to EATOM!!)
  PAW_PBE F 08Apr2002                   :
 energy of atom  3       EATOM= -659.6475
 kinetic energy error for atom=    0.0140 (will be added to EATOM!!)
 
 
 POSCAR: TiOF2 2x2x2 config 1                    
  positions in direct lattice
  velocities in cartesian coordinates
 exchange correlation table for  LEXCH =       14
   RHO(1)=    0.500       N(1)  =     2000
   RHO(2)=  100.500       N(2)  =     4000

 VTST: version 3.1, (03/28/14)

 CHAIN: initializing optimizer
 
 OPT: Using VASP QUASI-newton optimizer
 CHAIN: Read ICHAIN            0
 
 POSCAR: TiOF2 2x2x2 config 1                    
  positions in direct lattice
  velocities in cartesian coordinates
 


--------------------------------------------------------------------------------------------------------


 ion  position               nearest neighbor table
   1  0.000  0.000  0.989-  10 1.78  17 1.91  21 1.91  27 1.92  25 1.92  32 1.94
   2  0.000  0.000  0.510-  10 1.80  22 1.90  18 1.90  26 1.92  28 1.93  32 1.94
   3  1.000  0.500  0.000-  12 1.86  11 1.86  19 1.94  23 1.94  25 2.01  27 2.01
   4  1.000  0.500  0.499-  11 1.87  12 1.88  20 1.94  24 1.94  26 2.00  28 2.01
   5  0.500  0.001  0.000-  13 1.83  14 1.84  29 1.95  31 1.96  21 2.05  17 2.05
   6  0.500  0.984  0.500-   9 1.83  13 1.90  14 1.91  22 2.06  18 2.06  30 2.08
   7  0.500  0.500  0.000-  16 1.84  15 1.84  29 1.97  31 1.98  23 2.01  19 2.01
   8  0.500  0.512  0.500-   9 1.88  15 1.89  16 1.90  20 2.02  24 2.02  30 2.07
   9  0.500  0.751  0.500-   6 1.83   8 1.88
  10  0.000  1.000  0.750-   1 1.78   2 1.80
  11  1.000  0.500  0.250-   3 1.86   4 1.87
  12  1.000  0.500  0.751-   3 1.86   4 1.88
  13  0.500  0.004  0.246-   5 1.83   6 1.90
  14  0.500  0.004  0.754-   5 1.84   6 1.91
  15  0.500  0.497  0.247-   7 1.84   8 1.89
  16  0.500  0.497  0.753-   7 1.84   8 1.90
  17  0.241  1.000  0.005-   1 1.91   5 2.05
  18  0.240  0.001  0.495-   2 1.90   6 2.06
  19  0.246  0.500  1.000-   3 1.94   7 2.01
  20  0.245  0.499  0.500-   4 1.94   8 2.02
  21  0.759  1.000  0.005-   1 1.91   5 2.05
  22  0.760  0.001  0.495-   2 1.90   6 2.06
  23  0.754  0.500  1.000-   3 1.94   7 2.01
  24  0.755  0.499  0.500-   4 1.94   8 2.02
  25  1.000  0.245  0.005-   1 1.92   3 2.01
  26  1.000  0.245  0.495-   2 1.92   4 2.00
  27  0.000  0.756  0.005-   1 1.92   3 2.01
  28  0.000  0.755  0.495-   2 1.93   4 2.01
  29  0.500  0.249  0.000-   5 1.95   7 1.97
  30  0.500  0.249  0.500-   8 2.07   6 2.08
  31  0.500  0.751  0.000-   5 1.96   7 1.98
  32  0.000  1.000  0.249-   2 1.94   1 1.94
 

IMPORTANT INFORMATION: All symmetrisations will be switched off!
NOSYMM: (Re-)initialisation of all symmetry stuff for point group C_1.

 
 
 KPOINTS: Title                                   

Automatic generation of k-mesh.
Space group operators:
 irot       det(A)        alpha          n_x          n_y          n_z        tau_x        tau_y        tau_z
    1     1.000000     0.000000     1.000000     0.000000     0.000000     0.000000     0.000000     0.000000
 
 Subroutine IBZKPT returns following result:
 ===========================================
 
 Found     32 irreducible k-points:
 
 Following reciprocal coordinates:
            Coordinates               Weight
  0.125000  0.125000  0.125000      2.000000
  0.375000  0.125000  0.125000      2.000000
 -0.375000  0.125000  0.125000      2.000000
 -0.125000  0.125000  0.125000      2.000000
  0.125000  0.375000  0.125000      2.000000
  0.375000  0.375000  0.125000      2.000000
 -0.375000  0.375000  0.125000      2.000000
 -0.125000  0.375000  0.125000      2.000000
  0.125000 -0.375000  0.125000      2.000000
  0.375000 -0.375000  0.125000      2.000000
 -0.375000 -0.375000  0.125000      2.000000
 -0.125000 -0.375000  0.125000      2.000000
  0.125000 -0.125000  0.125000      2.000000
  0.375000 -0.125000  0.125000      2.000000
 -0.375000 -0.125000  0.125000      2.000000
 -0.125000 -0.125000  0.125000      2.000000
  0.125000  0.125000  0.375000      2.000000
  0.375000  0.125000  0.375000      2.000000
 -0.375000  0.125000  0.375000      2.000000
 -0.125000  0.125000  0.375000      2.000000
  0.125000  0.375000  0.375000      2.000000
  0.375000  0.375000  0.375000      2.000000
 -0.375000  0.375000  0.375000      2.000000
 -0.125000  0.375000  0.375000      2.000000
  0.125000 -0.375000  0.375000      2.000000
  0.375000 -0.375000  0.375000      2.000000
 -0.375000 -0.375000  0.375000      2.000000
 -0.125000 -0.375000  0.375000      2.000000
  0.125000 -0.125000  0.375000      2.000000
  0.375000 -0.125000  0.375000      2.000000
 -0.375000 -0.125000  0.375000      2.000000
 -0.125000 -0.125000  0.375000      2.000000
 
 Following cartesian coordinates:
            Coordinates               Weight
  0.015795  0.015913  0.016741      2.000000
  0.047386  0.015913  0.016741      2.000000
 -0.047386  0.015913  0.016741      2.000000
 -0.015795  0.015913  0.016741      2.000000
  0.015795  0.047739  0.016741      2.000000
  0.047386  0.047739  0.016741      2.000000
 -0.047386  0.047739  0.016741      2.000000
 -0.015795  0.047739  0.016741      2.000000
  0.015795 -0.047738  0.016740      2.000000
  0.047386 -0.047738  0.016740      2.000000
 -0.047386 -0.047738  0.016740      2.000000
 -0.015795 -0.047738  0.016740      2.000000
  0.015795 -0.015913  0.016741      2.000000
  0.047386 -0.015913  0.016741      2.000000
 -0.047386 -0.015913  0.016741      2.000000
 -0.015795 -0.015913  0.016741      2.000000
  0.015795  0.015913  0.050222      2.000000
  0.047386  0.015913  0.050222      2.000000
 -0.047386  0.015913  0.050222      2.000000
 -0.015795  0.015913  0.050222      2.000000
  0.015795  0.047739  0.050223      2.000000
  0.047386  0.047739  0.050223      2.000000
 -0.047386  0.047739  0.050223      2.000000
 -0.015795  0.047739  0.050223      2.000000
  0.015795 -0.047738  0.050222      2.000000
  0.047386 -0.047738  0.050222      2.000000
 -0.047386 -0.047738  0.050222      2.000000
 -0.015795 -0.047738  0.050222      2.000000
  0.015795 -0.015912  0.050222      2.000000
  0.047386 -0.015912  0.050222      2.000000
 -0.047386 -0.015912  0.050222      2.000000
 -0.015795 -0.015912  0.050222      2.000000
 


--------------------------------------------------------------------------------------------------------




 Dimension of arrays:
   k-points           NKPTS =     32   k-points in BZ     NKDIM =     32   number of bands    NBANDS=    160
   number of dos      NEDOS =   3001   number of ions     NIONS =     32
   non local maximal  LDIM  =      6   non local SUM 2l+1 LMDIM =     18
   total plane-waves  NPLWV = 313600
   max r-space proj   IRMAX =   9371   max aug-charges    IRDMAX= 210013
   dimension x,y,z NGX =    70 NGY =   70 NGZ =   64
   dimension x,y,z NGXF=   140 NGYF=  140 NGZF=  128
   support grid    NGXF=   280 NGYF=  280 NGZF=  256
   ions per type =               8   8  16
   NGX,Y,Z   is equivalent  to a cutoff of  14.70, 14.81, 14.25 a.u.
   NGXF,Y,Z  is equivalent  to a cutoff of  29.41, 29.63, 28.50 a.u.

 SYSTEM =  LTO                                     
 POSCAR =  TiOF2 2x2x2 config 1                    

 Startparameter for this run:
   NWRITE =      2    write-flag & timer
   PREC   = accura    normal or accurate (medium, high low for compatibility)
   ISTART =      1    job   : 0-new  1-cont  2-samecut
   ICHARG =      0    charge: 1-file 2-atom 10-const
   ISPIN  =      2    spin polarized calculation?
   LNONCOLLINEAR =      F non collinear calculations
   LSORBIT =      F    spin-orbit coupling
   INIWAV =      1    electr: 0-lowe 1-rand  2-diag
   LASPH  =      T    aspherical Exc in radial PAW
   METAGGA=      F    non-selfconsistent MetaGGA calc.

 Electronic Relaxation 1
   ENCUT  =  700.0 eV  51.45 Ry    7.17 a.u.  17.07 16.95 16.11*2*pi/ulx,y,z
   ENINI  =  700.0     initial cutoff
   ENAUG  =  613.6 eV  augmentation charge cutoff
   NELM   =     60;   NELMIN=  2; NELMDL=  0     # of ELM steps 
   EDIFF  = 0.1E-05   stopping-criterion for ELM
   LREAL  =      T    real-space projection
   NLSPLINE    = F    spline interpolate recip. space projectors
   LCOMPAT=      F    compatible to vasp.4.4
   GGA_COMPAT  = T    GGA compatible to vasp.4.4-vasp.4.6
   LMAXPAW     = -100 max onsite density
   LMAXMIX     =    4 max onsite mixed and CHGCAR
   VOSKOWN=      0    Vosko Wilk Nusair interpolation
   ROPT   =   -0.00010  -0.00010  -0.00010
 Ionic relaxation
   EDIFFG = -.1E-01   stopping-criterion for IOM
   NSW    =    100    number of steps for IOM
   NBLOCK =      1;   KBLOCK =    100    inner block; outer block 
   IBRION =      1    ionic relax: 0-MD 1-quasi-New 2-CG
   NFREE  =      0    steps in history (QN), initial steepest desc. (CG)
   ISIF   =      3    stress and relaxation
   IWAVPR =     11    prediction:  0-non 1-charg 2-wave 3-comb
   ISYM   =      0    0-nonsym 1-usesym 2-fastsym
   LCORR  =      T    Harris-Foulkes like correction to forces

   POTIM  = 0.5000    time-step for ionic-motion
   TEIN   =    0.0    initial temperature
   TEBEG  =    0.0;   TEEND  =   0.0 temperature during run
   SMASS  =  -3.00    Nose mass-parameter (am)
   estimated Nose-frequenzy (Omega)   =  0.10E-29 period in steps =****** mass=  -0.143E-26a.u.
   SCALEE = 1.0000    scale energy and forces
   NPACO  =    256;   APACO  = 16.0  distance and # of slots for P.C.
   PSTRESS=    0.0 pullay stress

  Mass of Ions in am
   POMASS =  47.88 16.00 19.00
  Ionic Valenz
   ZVAL   =  10.00  6.00  7.00
  Atomic Wigner-Seitz radii
   RWIGS  =  -1.00 -1.00 -1.00
  virtual crystal weights 
   VCA    =   1.00  1.00  1.00
   NELECT =     240.0000    total number of electrons
   NUPDOWN=      -1.0000    fix difference up-down

 DOS related values:
   EMIN   =  10.00;   EMAX   =-10.00  energy-range for DOS
   EFERMI =   0.00
   ISMEAR =     0;   SIGMA  =   0.01  broadening in eV -4-tet -1-fermi 0-gaus

 Electronic relaxation 2 (details)
   IALGO  =     38    algorithm
   LDIAG  =      T    sub-space diagonalisation (order eigenvalues)
   LSUBROT=      F    optimize rotation matrix (better conditioning)
   TURBO    =      0    0=normal 1=particle mesh
   IRESTART =      0    0=no restart 2=restart with 2 vectors
   NREBOOT  =      0    no. of reboots
   NMIN     =      0    reboot dimension
   EREF     =   0.00    reference energy to select bands
   IMIX   =      4    mixing-type and parameters
     AMIX     =   0.40;   BMIX     =  1.00
     AMIX_MAG =   1.60;   BMIX_MAG =  1.00
     AMIN     =   0.10
     WC   =   100.;   INIMIX=   1;  MIXPRE=   1;  MAXMIX= -45

 Intra band minimization:
   WEIMIN = 0.0010     energy-eigenvalue tresh-hold
   EBREAK =  0.16E-08  absolut break condition
   DEPER  =   0.30     relativ break condition  

   TIME   =   0.40     timestep for ELM

  volume/ion in A,a.u.               =      14.51        97.89
  Fermi-wavevector in a.u.,A,eV,Ry     =   1.313965  2.483034 23.490510  1.726504
  Thomas-Fermi vector in A             =   2.444251
 
 Write flags
   LWAVE        =      T    write WAVECAR
   LDOWNSAMPLE  =      F    k-point downsampling of WAVECAR
   LCHARG       =      T    write CHGCAR
   LVTOT        =      F    write LOCPOT, total local potential
   LVHAR        =      F    write LOCPOT, Hartree potential only
   LELF         =      F    write electronic localiz. function (ELF)
   LORBIT       =     11    0 simple, 1 ext, 2 COOP (PROOUT), +10 PAW based schemes


 Dipole corrections
   LMONO  =      F    monopole corrections only (constant potential shift)
   LDIPOL =      F    correct potential (dipole corrections)
   IDIPOL =      0    1-x, 2-y, 3-z, 4-all directions 
   EPSILON=  1.0000000 bulk dielectric constant

 LDA+U is selected, type is set to LDAUTYPE =  2
   angular momentum for each species LDAUL =     2   -1   -1
   U (eV)           for each species LDAUU =   4.2  0.0  0.0
   J (eV)           for each species LDAUJ =   0.0  0.0  0.0
 Exchange correlation treatment:
   GGA     =    PS    GGA type
   LEXCH   =    14    internal setting for exchange type
   VOSKOWN=      0    Vosko Wilk Nusair interpolation
   LHFCALC =     F    Hartree Fock is set to
   LHFONE  =     F    Hartree Fock one center treatment
   AEXX    =    0.0000 exact exchange contribution

 Linear response parameters
   LEPSILON=     F    determine dielectric tensor
   LRPA    =     F    only Hartree local field effects (RPA)
   LNABLA  =     F    use nabla operator in PAW spheres
   LVEL    =     F    velocity operator in full k-point grid
   LINTERFAST=   F  fast interpolation
   KINTER  =     0    interpolate to denser k-point grid
   CSHIFT  =0.1000    complex shift for real part using Kramers Kronig
   OMEGAMAX=  -1.0    maximum frequency
   DEG_THRESHOLD= 0.2000000E-02 threshold for treating states as degnerate
   RTIME   =   -0.100 relaxation time in fs
  (WPLASMAI=    0.000 imaginary part of plasma frequency in eV, 0.658/RTIME)
   DFIELD  = 0.0000000 0.0000000 0.0000000 field for delta impulse in time
 
 Orbital magnetization related:
   ORBITALMAG=     F  switch on orbital magnetization
   LCHIMAG   =     F  perturbation theory with respect to B field
   DQ        =  0.001000  dq finite difference perturbation B field
   LLRAUG    =     F  two centre corrections for induced B field



--------------------------------------------------------------------------------------------------------


 quasi-Newton-method for relaxation of ions
 charge density and potential will be updated during run
 spin polarized calculation
 Variant of blocked Davidson
 Davidson routine will perform the subspace rotation
 perform sub-space diagonalisation
    after iterative eigenvector-optimisation
 modified Broyden-mixing scheme, WC =      100.0
 initial mixing is a Kerker type mixing with AMIX =  0.4000 and BMIX =      1.0000
 Hartree-type preconditioning will be used
 using additional bands           40
 real space projection scheme for non local part
 use partial core corrections
 calculate Harris-corrections to forces 
   (improved forces if not selfconsistent)
 use gradient corrections 
 use of overlap-Matrix (Vanderbilt PP)
 Gauss-broadening in eV      SIGMA  =   0.01


--------------------------------------------------------------------------------------------------------


  energy-cutoff  :      700.00
  volume of cell :      464.18
      direct lattice vectors                 reciprocal lattice vectors
     7.913806703 -0.000003431 -0.000002347     0.126361439  0.000000055  0.000000037
    -0.000003407  7.855306553 -0.000071516     0.000000055  0.127302479  0.000001381
    -0.000002209 -0.000080999  7.466822887     0.000000040  0.000001219  0.133925769

  length of vectors
     7.913806703  7.855306553  7.466822888     0.126361439  0.127302479  0.133925769


 
 old parameters found on file WAVECAR:
  energy-cutoff  :      700.00
  volume of cell :      464.14
      direct lattice vectors                 reciprocal lattice vectors
     7.914155910  0.000000012  0.000000041     0.126355863 -0.000000000 -0.000000001
     0.000000014  7.855128828 -0.000037441    -0.000000000  0.127305360  0.000000829
     0.000000042 -0.000048600  7.466115008    -0.000000001  0.000000638  0.133938467

  length of vectors

 
 k-points in units of 2pi/SCALE and weight: Title                                   
   0.01579519  0.01591297  0.01674090       0.031
   0.04738555  0.01591298  0.01674091       0.031
  -0.04738553  0.01591294  0.01674088       0.031
  -0.01579517  0.01591296  0.01674089       0.031
   0.01579521  0.04773859  0.01674124       0.031
   0.04738557  0.04773860  0.01674125       0.031
  -0.04738551  0.04773856  0.01674123       0.031
  -0.01579515  0.04773858  0.01674123       0.031
   0.01579516 -0.04773827  0.01674021       0.031
   0.04738552 -0.04773826  0.01674022       0.031
  -0.04738556 -0.04773830  0.01674019       0.031
  -0.01579520 -0.04773828  0.01674020       0.031
   0.01579518 -0.01591265  0.01674055       0.031
   0.04738554 -0.01591264  0.01674056       0.031
  -0.04738554 -0.01591268  0.01674053       0.031
  -0.01579518 -0.01591266  0.01674054       0.031
   0.01579520  0.01591327  0.05022234       0.031
   0.04738556  0.01591329  0.05022235       0.031
  -0.04738552  0.01591325  0.05022232       0.031
  -0.01579516  0.01591326  0.05022233       0.031
   0.01579522  0.04773889  0.05022269       0.031
   0.04738558  0.04773891  0.05022270       0.031
  -0.04738550  0.04773887  0.05022267       0.031
  -0.01579514  0.04773888  0.05022268       0.031
   0.01579517 -0.04773797  0.05022165       0.031
   0.04738553 -0.04773795  0.05022166       0.031
  -0.04738555 -0.04773799  0.05022163       0.031
  -0.01579519 -0.04773798  0.05022164       0.031
   0.01579519 -0.01591235  0.05022200       0.031
   0.04738555 -0.01591233  0.05022200       0.031
  -0.04738553 -0.01591237  0.05022198       0.031
  -0.01579517 -0.01591236  0.05022199       0.031
 
 k-points in reciprocal lattice and weights: Title                                   
   0.12500000  0.12500000  0.12500000       0.031
   0.37500000  0.12500000  0.12500000       0.031
  -0.37500000  0.12500000  0.12500000       0.031
  -0.12500000  0.12500000  0.12500000       0.031
   0.12500000  0.37500000  0.12500000       0.031
   0.37500000  0.37500000  0.12500000       0.031
  -0.37500000  0.37500000  0.12500000       0.031
  -0.12500000  0.37500000  0.12500000       0.031
   0.12500000 -0.37500000  0.12500000       0.031
   0.37500000 -0.37500000  0.12500000       0.031
  -0.37500000 -0.37500000  0.12500000       0.031
  -0.12500000 -0.37500000  0.12500000       0.031
   0.12500000 -0.12500000  0.12500000       0.031
   0.37500000 -0.12500000  0.12500000       0.031
  -0.37500000 -0.12500000  0.12500000       0.031
  -0.12500000 -0.12500000  0.12500000       0.031
   0.12500000  0.12500000  0.37500000       0.031
   0.37500000  0.12500000  0.37500000       0.031
  -0.37500000  0.12500000  0.37500000       0.031
  -0.12500000  0.12500000  0.37500000       0.031
   0.12500000  0.37500000  0.37500000       0.031
   0.37500000  0.37500000  0.37500000       0.031
  -0.37500000  0.37500000  0.37500000       0.031
  -0.12500000  0.37500000  0.37500000       0.031
   0.12500000 -0.37500000  0.37500000       0.031
   0.37500000 -0.37500000  0.37500000       0.031
  -0.37500000 -0.37500000  0.37500000       0.031
  -0.12500000 -0.37500000  0.37500000       0.031
   0.12500000 -0.12500000  0.37500000       0.031
   0.37500000 -0.12500000  0.37500000       0.031
  -0.37500000 -0.12500000  0.37500000       0.031
  -0.12500000 -0.12500000  0.37500000       0.031
 
 position of ions in fractional coordinates (direct lattice) 
   0.00000002  0.00006622  0.98921911
   0.00000001  0.00021017  0.50963600
   1.00000000  0.50008492  0.00012598
   0.99999994  0.49983930  0.49946816
   0.50000001  0.00113327  0.00046948
   0.50000004  0.98418270  0.49981901
   0.50000001  0.49971961  0.00005551
   0.49999989  0.51218172  0.50004904
   0.50000001  0.75128571  0.50019253
   0.00000003  0.99987064  0.75024259
   0.99999998  0.50034039  0.24965566
   1.00000000  0.50034666  0.75062211
   0.50000002  0.00364064  0.24607837
   0.50000006  0.00357999  0.75418841
   0.50000001  0.49713027  0.24677087
   0.50000000  0.49711882  0.75340027
   0.24120032  0.99991797  0.00494782
   0.23986798  0.00081854  0.49475929
   0.24574233  0.50038089  0.99999086
   0.24451942  0.49874385  0.50022494
   0.75879964  0.99991798  0.00494786
   0.76013207  0.00081861  0.49475921
   0.75425766  0.50038095  0.99999085
   0.75548045  0.49874367  0.50022502
   0.99999979  0.24460493  0.00482849
   1.00000000  0.24471583  0.49540477
   0.00000009  0.75556943  0.00483623
   0.00000006  0.75542168  0.49543258
   0.50000010  0.24946186  0.00001185
   0.50000002  0.24850283  0.50018671
   0.49999999  0.75139803  0.00000048
   0.00000008  0.99987192  0.24945992
 
 position of ions in cartesian coordinates  (Angst):
  -0.00000205  0.00044004  7.38632387
  -0.00000103  0.00160964  3.80536174
   7.91380497  3.92831688  0.00090256
   7.91380341  3.92634708  3.72940216
   3.95690345  0.00890044  0.00350424
   3.95689919  7.73101458  3.73198847
   3.95690170  3.92544901  0.00037759
   3.95689965  4.02330217  3.73373981
   3.95689974  5.90153736  3.73479411
  -0.00000484  7.85422965  5.60185703
   7.91380427  3.93030350  1.86409648
   7.91380331  3.93031218  5.60472423
   3.95690295  0.02857672  1.83742219
   3.95690217  0.02805908  5.63138984
   3.95690118  3.90508896  1.84255769
   3.95689998  3.90495799  5.62546965
   1.90880931  7.85466093  0.03687245
   1.89826773  0.00638901  3.69427938
   1.94475338  3.93056340  7.46671831
   1.93507659  3.91774445  3.73505480
   6.00499026  7.85465929  0.03687151
   6.01553716  0.00638778  3.69427758
   5.96904538  3.93056219  7.46671703
   5.97872342  3.91774127  3.73505421
   7.91380422  1.92144286  0.03603362
   7.91380476  1.92227433  3.69907983
  -0.00000191  5.93522914  0.03605721
  -0.00000316  5.93402871  3.69925329
   3.95690329  1.95959765  0.00006949
   3.95690159  1.95202369  3.73478665
   3.95690072  5.90246017 -0.00005133
  -0.00000336  7.85428024  1.86260155
 


--------------------------------------------------------------------------------------------------------


 k-point  1 :   0.1250 0.1250 0.1250  plane waves:   19493
 k-point  2 :   0.3750 0.1250 0.1250  plane waves:   19523
 k-point  3 :  -0.3750 0.1250 0.1250  plane waves:   19523
 k-point  4 :  -0.1250 0.1250 0.1250  plane waves:   19493
 k-point  5 :   0.1250 0.3750 0.1250  plane waves:   19524
 k-point  6 :   0.3750 0.3750 0.1250  plane waves:   19505
 k-point  7 :  -0.3750 0.3750 0.1250  plane waves:   19505
 k-point  8 :  -0.1250 0.3750 0.1250  plane waves:   19524
 k-point  9 :   0.1250-0.3750 0.1250  plane waves:   19524
 k-point 10 :   0.3750-0.3750 0.1250  plane waves:   19504
 k-point 11 :  -0.3750-0.3750 0.1250  plane waves:   19504
 k-point 12 :  -0.1250-0.3750 0.1250  plane waves:   19524
 k-point 13 :   0.1250-0.1250 0.1250  plane waves:   19493
 k-point 14 :   0.3750-0.1250 0.1250  plane waves:   19523
 k-point 15 :  -0.3750-0.1250 0.1250  plane waves:   19523
 k-point 16 :  -0.1250-0.1250 0.1250  plane waves:   19493
 k-point 17 :   0.1250 0.1250 0.3750  plane waves:   19497
 k-point 18 :   0.3750 0.1250 0.3750  plane waves:   19534
 k-point 19 :  -0.3750 0.1250 0.3750  plane waves:   19534
 k-point 20 :  -0.1250 0.1250 0.3750  plane waves:   19497
 k-point 21 :   0.1250 0.3750 0.3750  plane waves:   19531
 k-point 22 :   0.3750 0.3750 0.3750  plane waves:   19551
 k-point 23 :  -0.3750 0.3750 0.3750  plane waves:   19551
 k-point 24 :  -0.1250 0.3750 0.3750  plane waves:   19531
 k-point 25 :   0.1250-0.3750 0.3750  plane waves:   19530
 k-point 26 :   0.3750-0.3750 0.3750  plane waves:   19551
 k-point 27 :  -0.3750-0.3750 0.3750  plane waves:   19551
 k-point 28 :  -0.1250-0.3750 0.3750  plane waves:   19530
 k-point 29 :   0.1250-0.1250 0.3750  plane waves:   19497
 k-point 30 :   0.3750-0.1250 0.3750  plane waves:   19533
 k-point 31 :  -0.3750-0.1250 0.3750  plane waves:   19533
 k-point 32 :  -0.1250-0.1250 0.3750  plane waves:   19497

 maximum and minimum number of plane-waves per node :      2477     2398

 maximum number of plane-waves:     19551
 maximum index in each direction: 
   IXMAX=   17   IYMAX=   17   IZMAX=   15
   IXMIN=  -17   IYMIN=  -17   IZMIN=  -16


 real space projection operators:
  total allocation   :      16842.97 KBytes
  max/ min on nodes  :       2238.34       1746.80


 parallel 3D FFT for wavefunctions:
    minimum data exchange during FFTs selected (reduces bandwidth)
 parallel 3D FFT for charge:
    minimum data exchange during FFTs selected (reduces bandwidth)


 total amount of memory used by VASP MPI-rank0   105117. kBytes
=======================================================================

   base      :      30000. kBytes
   nonlr-proj:       7799. kBytes
   fftplans  :       7712. kBytes
   grid      :       8037. kBytes
   one-center:        124. kBytes
   wavefun   :      51445. kBytes
 
     INWAV:  cpu time   29.9394: real time   50.2363
 Broyden mixing: mesh for mixing (old mesh)
   NGX = 35   NGY = 33   NGZ = 33
  (NGX  =140   NGY  =140   NGZ  =128)
  gives a total of  38115 points

 charge density for first step will be calculated from the start-wavefunctions


--------------------------------------------------------------------------------------------------------


 Maximum index for non-local projection operator         1262
 Maximum index for augmentation-charges         6538 (set IRDMAX)


--------------------------------------------------------------------------------------------------------


 initial charge from wavefunction
 First call to EWALD:  gamma=   0.229
 Maximum number of real-space cells 3x 3x 3
 Maximum number of reciprocal cells 3x 3x 3

    FEWALD:  cpu time    0.0030: real time    0.0031


--------------------------------------- Iteration      1(   1)  ---------------------------------------


    POTLOK:  cpu time    0.1860: real time    0.2590
    SETDIJ:  cpu time    0.8479: real time    0.8486
     EDDAV:  cpu time   26.0660: real time   26.0667
       DOS:  cpu time    0.0040: real time    0.0033
    CHARGE:  cpu time    1.0428: real time    1.0422
    MIXING:  cpu time    0.0020: real time    0.0020
    --------------------------------------------
      LOOP:  cpu time   28.1487: real time   28.2219

 eigenvalue-minimisations  : 19360
 total energy-change (2. order) :-0.2111094E+03  (-0.8202788E-04)
 number of electron     240.0000002 magnetization      -0.0000000
 augmentation part       61.9388145 magnetization      -0.0000000

 Broyden mixing:
  rms(total) = 0.35599E-03    rms(broyden)= 0.35586E-03
  rms(prec ) = 0.57971E-03
  weight for this iteration     100.00

 Free energy of the ion-electron system (eV)
  ---------------------------------------------------
  alpha Z        PSCENC =       754.37915152
  Ewald energy   TEWEN  =    -12745.51523796
  -Hartree energ DENC   =     -8275.45798044
  -exchange      EXHF   =         0.00000000
  -V(xc)+E(xc)   XCENC  =      1119.43287317
  PAW double counting   =     17989.04110485   -18112.48571302
  entropy T*S    EENTRO =        -0.00000000
  eigenvalues    EBANDS =     -3242.85681321
  atomic energy  EATOM  =     22302.35321627
  Solvation  Ediel_sol  =         0.00000000
  ---------------------------------------------------
  free energy    TOTEN  =      -211.10939882 eV

  energy without entropy =     -211.10939882  energy(sigma->0) =     -211.10939882


--------------------------------------------------------------------------------------------------------




--------------------------------------- Iteration      1(   2)  ---------------------------------------


    POTLOK:  cpu time    0.1230: real time    0.1619
    SETDIJ:  cpu time    0.8509: real time    0.8587
     EDDAV:  cpu time   21.8237: real time   21.9552
       DOS:  cpu time    0.0030: real time    0.0032
    --------------------------------------------
      LOOP:  cpu time   22.8005: real time   22.9791

 eigenvalue-minimisations  : 15072
 total energy-change (2. order) : 0.1853041E-06  (-0.1092523E-06)
 number of electron     240.0000002 magnetization      -0.0000000
 augmentation part       61.9388145 magnetization      -0.0000000

 Free energy of the ion-electron system (eV)
  ---------------------------------------------------
  alpha Z        PSCENC =       754.37915152
  Ewald energy   TEWEN  =    -12745.51523796
  -Hartree energ DENC   =     -8275.46396473
  -exchange      EXHF   =         0.00000000
  -V(xc)+E(xc)   XCENC  =      1119.43280715
  PAW double counting   =     17989.05643211   -18112.50043448
  entropy T*S    EENTRO =        -0.00000000
  eigenvalues    EBANDS =     -3242.85136852
  atomic energy  EATOM  =     22302.35321627
  Solvation  Ediel_sol  =         0.00000000
  ---------------------------------------------------
  free energy    TOTEN  =      -211.10939864 eV

  energy without entropy =     -211.10939864  energy(sigma->0) =     -211.10939864


--------------------------------------------------------------------------------------------------------




 average (electrostatic) potential at core
  the test charge radii are     1.0397  0.7215  0.7167
  (the norm of the test charge is              1.0000)
       1 -60.1451       2 -60.1051       3 -59.1610       4 -59.1451       5 -58.4895
       6 -58.1106       7 -58.3102       8 -58.0576       9 -73.3335      10 -75.3400
      11 -73.7840      12 -73.7779      13 -73.1459      14 -73.1375      15 -72.9476
      16 -72.9476      17 -79.7336      18 -79.5847      19 -79.1337      20 -78.9878
      21 -79.7336      22 -79.5847      23 -79.1337      24 -78.9878      25 -79.9750
      26 -79.9024      27 -79.9711      28 -79.8952      29 -78.9276      30 -77.5865
      31 -78.9086      32 -80.0518
 
 
 
 E-fermi :   0.1905     XC(G=0):  -8.9542     alpha+bet : -7.6125


 spin component 1

 k-point     1 :       0.1250    0.1250    0.1250
  band No.  band energies     occupation 
      1     -36.1064      1.00000
      2     -36.0758      1.00000
      3     -36.0559      1.00000
      4     -36.0548      1.00000
      5     -36.0241      1.00000
      6     -35.9327      1.00000
      7     -35.2054      1.00000
      8     -35.1763      1.00000
      9     -35.1445      1.00000
     10     -35.1132      1.00000
     11     -34.8021      1.00000
     12     -34.7211      1.00000
     13     -34.5915      1.00000
     14     -34.5348      1.00000
     15     -34.3804      1.00000
     16     -34.3427      1.00000
     17     -34.1973      1.00000
     18     -34.1031      1.00000
     19     -34.0932      1.00000
     20     -33.9592      1.00000
     21     -33.9139      1.00000
     22     -33.8804      1.00000
     23     -33.8131      1.00000
     24     -33.7201      1.00000
     25     -23.9457      1.00000
     26     -23.8001      1.00000
     27     -23.6634      1.00000
     28     -23.5191      1.00000
     29     -23.3854      1.00000
     30     -23.3718      1.00000
     31     -23.3070      1.00000
     32     -23.1408      1.00000
     33     -22.9827      1.00000
     34     -22.9742      1.00000
     35     -22.8056      1.00000
     36     -22.7428      1.00000
     37     -22.5632      1.00000
     38     -22.4085      1.00000
     39     -22.3461      1.00000
     40     -21.2303      1.00000
     41     -17.8043      1.00000
     42     -16.7735      1.00000
     43     -16.1668      1.00000
     44     -15.9810      1.00000
     45     -15.8818      1.00000
     46     -15.7341      1.00000
     47     -15.2422      1.00000
     48     -15.0449      1.00000
     49      -7.5247      1.00000
     50      -7.4445      1.00000
     51      -7.3753      1.00000
     52      -7.1501      1.00000
     53      -6.9708      1.00000
     54      -6.5896      1.00000
     55      -6.3906      1.00000
     56      -6.3192      1.00000
     57      -6.2906      1.00000
     58      -6.1352      1.00000
     59      -5.9642      1.00000
     60      -5.9520      1.00000
     61      -5.9047      1.00000
     62      -5.7818      1.00000
     63      -5.7317      1.00000
     64      -5.5833      1.00000
     65      -5.2345      1.00000
     66      -5.1035      1.00000
     67      -5.0779      1.00000
     68      -5.0503      1.00000
     69      -5.0463      1.00000
     70      -5.0169      1.00000
     71      -4.9118      1.00000
     72      -4.9011      1.00000
     73      -4.8442      1.00000
     74      -4.7785      1.00000
     75      -4.7702      1.00000
     76      -4.7205      1.00000
     77      -4.6353      1.00000
     78      -4.5624      1.00000
     79      -4.4977      1.00000
     80      -4.4707      1.00000
     81      -4.4097      1.00000
     82      -4.4018      1.00000
     83      -4.3455      1.00000
     84      -4.2950      1.00000
     85      -4.2875      1.00000
     86      -4.2574      1.00000
     87      -4.1872      1.00000
     88      -4.1742      1.00000
     89      -4.0986      1.00000
     90      -4.0163      1.00000
     91      -3.9259      1.00000
     92      -3.9173      1.00000
     93      -3.8924      1.00000
     94      -3.7930      1.00000
     95      -3.7843      1.00000
     96      -3.7422      1.00000
     97      -3.6379      1.00000
     98      -3.3455      1.00000
     99      -3.1919      1.00000
    100      -3.0347      1.00000
    101      -2.9287      1.00000
    102      -2.5104      1.00000
    103      -2.4677      1.00000
    104      -1.9840      1.00000
    105      -1.9442      1.00000
    106      -1.9159      1.00000
    107      -1.7154      1.00000
    108      -1.4959      1.00000
    109      -1.4723      1.00000
    110      -1.4386      1.00000
    111      -1.3978      1.00000
    112      -1.2905      1.00000
    113      -1.1572      1.00000
    114      -0.9176      1.00000
    115      -0.8579      1.00000
    116      -0.8105      1.00000
    117      -0.7626      1.00000
    118      -0.5276      1.00000
    119      -0.3113      1.00000
    120       0.0372      1.00000
    121       1.1331      0.00000
    122       1.2846      0.00000
    123       1.5245      0.00000
    124       1.6354      0.00000
    125       2.0914      0.00000
    126       2.1634      0.00000
    127       2.4127      0.00000
    128       2.4383      0.00000
    129       2.5514      0.00000
    130       2.5974      0.00000
    131       2.6692      0.00000
    132       2.6938      0.00000
    133       2.7137      0.00000
    134       2.7694      0.00000
    135       2.7948      0.00000
    136       2.8059      0.00000
    137       3.0789      0.00000
    138       3.0912      0.00000
    139       3.3942      0.00000
    140       3.4894      0.00000
    141       3.6388      0.00000
    142       3.6646      0.00000
    143       3.7964      0.00000
    144       3.8230      0.00000
    145       3.8865      0.00000
    146       4.0511      0.00000
    147       4.1874      0.00000
    148       4.2339      0.00000
    149       4.5051      0.00000
    150       4.5584      0.00000
    151       4.7046      0.00000
    152       4.8065      0.00000
    153       4.9848      0.00000
    154       5.1699      0.00000
    155       5.2189      0.00000
    156       5.4326      0.00000
    157       6.0041      0.00000
    158       6.1286      0.00000
    159       6.2828      0.00000
    160       6.9738      0.00000

 k-point     2 :       0.3750    0.1250    0.1250
  band No.  band energies     occupation 
      1     -36.1064      1.00000
      2     -36.0751      1.00000
      3     -36.0559      1.00000
      4     -36.0548      1.00000
      5     -36.0236      1.00000
      6     -35.9327      1.00000
      7     -35.2054      1.00000
      8     -35.1763      1.00000
      9     -35.1428      1.00000
     10     -35.1120      1.00000
     11     -34.8021      1.00000
     12     -34.7211      1.00000
     13     -34.5928      1.00000
     14     -34.5348      1.00000
     15     -34.3827      1.00000
     16     -34.3427      1.00000
     17     -34.1984      1.00000
     18     -34.1049      1.00000
     19     -34.0932      1.00000
     20     -33.9592      1.00000
     21     -33.9139      1.00000
     22     -33.8804      1.00000
     23     -33.8131      1.00000
     24     -33.7201      1.00000
     25     -23.9367      1.00000
     26     -23.7944      1.00000
     27     -23.6614      1.00000
     28     -23.4370      1.00000
     29     -23.3836      1.00000
     30     -23.3160      1.00000
     31     -23.2834      1.00000
     32     -23.2420      1.00000
     33     -23.0633      1.00000
     34     -22.8803      1.00000
     35     -22.7650      1.00000
     36     -22.7048      1.00000
     37     -22.6459      1.00000
     38     -22.5149      1.00000
     39     -22.3458      1.00000
     40     -21.2296      1.00000
     41     -17.8042      1.00000
     42     -16.7732      1.00000
     43     -16.1662      1.00000
     44     -15.9805      1.00000
     45     -15.8816      1.00000
     46     -15.7341      1.00000
     47     -15.2423      1.00000
     48     -15.0452      1.00000
     49      -7.5214      1.00000
     50      -7.4403      1.00000
     51      -7.3724      1.00000
     52      -6.8336      1.00000
     53      -6.6681      1.00000
     54      -6.4230      1.00000
     55      -6.2928      1.00000
     56      -6.2680      1.00000
     57      -6.1616      1.00000
     58      -6.0441      1.00000
     59      -5.9960      1.00000
     60      -5.9630      1.00000
     61      -5.9046      1.00000
     62      -5.8633      1.00000
     63      -5.7639      1.00000
     64      -5.7171      1.00000
     65      -5.5977      1.00000
     66      -5.4242      1.00000
     67      -5.1229      1.00000
     68      -5.1083      1.00000
     69      -5.0782      1.00000
     70      -5.0531      1.00000
     71      -5.0193      1.00000
     72      -4.9574      1.00000
     73      -4.8036      1.00000
     74      -4.7922      1.00000
     75      -4.7372      1.00000
     76      -4.7254      1.00000
     77      -4.6985      1.00000
     78      -4.6553      1.00000
     79      -4.6214      1.00000
     80      -4.4970      1.00000
     81      -4.4276      1.00000
     82      -4.3762      1.00000
     83      -4.3412      1.00000
     84      -4.3106      1.00000
     85      -4.2542      1.00000
     86      -4.2333      1.00000
     87      -4.1967      1.00000
     88      -4.1312      1.00000
     89      -4.1196      1.00000
     90      -4.0549      1.00000
     91      -4.0007      1.00000
     92      -3.9762      1.00000
     93      -3.8515      1.00000
     94      -3.8335      1.00000
     95      -3.7727      1.00000
     96      -3.6700      1.00000
     97      -3.6385      1.00000
     98      -3.4414      1.00000
     99      -3.1910      1.00000
    100      -2.9413      1.00000
    101      -2.8835      1.00000
    102      -2.5251      1.00000
    103      -2.4898      1.00000
    104      -1.9482      1.00000
    105      -1.9180      1.00000
    106      -1.7222      1.00000
    107      -1.6600      1.00000
    108      -1.5223      1.00000
    109      -1.4747      1.00000
    110      -1.4470      1.00000
    111      -1.3815      1.00000
    112      -1.3055      1.00000
    113      -1.1663      1.00000
    114      -1.0913      1.00000
    115      -0.8641      1.00000
    116      -0.8382      1.00000
    117      -0.7673      1.00000
    118      -0.5792      1.00000
    119      -0.3128      1.00000
    120       0.0370      1.00000
    121       1.1331      0.00000
    122       1.3492      0.00000
    123       1.6168      0.00000
    124       1.7011      0.00000
    125       2.1633      0.00000
    126       2.2138      0.00000
    127       2.4207      0.00000
    128       2.5172      0.00000
    129       2.5895      0.00000
    130       2.6695      0.00000
    131       2.6802      0.00000
    132       2.6910      0.00000
    133       2.7129      0.00000
    134       2.7205      0.00000
    135       2.8380      0.00000
    136       2.9585      0.00000
    137       2.9723      0.00000
    138       3.0868      0.00000
    139       3.4163      0.00000
    140       3.6593      0.00000
    141       3.7465      0.00000
    142       3.7989      0.00000
    143       3.8772      0.00000
    144       3.9407      0.00000
    145       4.1398      0.00000
    146       4.2043      0.00000
    147       4.2200      0.00000
    148       4.2944      0.00000
    149       4.4878      0.00000
    150       4.5505      0.00000
    151       4.5738      0.00000
    152       4.6832      0.00000
    153       4.8414      0.00000
    154       4.9892      0.00000
    155       5.1246      0.00000
    156       5.2733      0.00000
    157       5.9894      0.00000
    158       6.1877      0.00000
    159       6.4283      0.00000
    160       6.5584      0.00000

 k-point     3 :      -0.3750    0.1250    0.1250
  band No.  band energies     occupation 
      1     -36.1064      1.00000
      2     -36.0751      1.00000
      3     -36.0559      1.00000
      4     -36.0548      1.00000
      5     -36.0236      1.00000
      6     -35.9327      1.00000
      7     -35.2054      1.00000
      8     -35.1763      1.00000
      9     -35.1428      1.00000
     10     -35.1120      1.00000
     11     -34.8021      1.00000
     12     -34.7211      1.00000
     13     -34.5928      1.00000
     14     -34.5348      1.00000
     15     -34.3827      1.00000
     16     -34.3427      1.00000
     17     -34.1984      1.00000
     18     -34.1049      1.00000
     19     -34.0932      1.00000
     20     -33.9592      1.00000
     21     -33.9139      1.00000
     22     -33.8804      1.00000
     23     -33.8131      1.00000
     24     -33.7201      1.00000
     25     -23.9367      1.00000
     26     -23.7944      1.00000
     27     -23.6614      1.00000
     28     -23.4370      1.00000
     29     -23.3836      1.00000
     30     -23.3160      1.00000
     31     -23.2834      1.00000
     32     -23.2420      1.00000
     33     -23.0633      1.00000
     34     -22.8803      1.00000
     35     -22.7650      1.00000
     36     -22.7048      1.00000
     37     -22.6459      1.00000
     38     -22.5149      1.00000
     39     -22.3458      1.00000
     40     -21.2296      1.00000
     41     -17.8042      1.00000
     42     -16.7732      1.00000
     43     -16.1662      1.00000
     44     -15.9805      1.00000
     45     -15.8816      1.00000
     46     -15.7341      1.00000
     47     -15.2423      1.00000
     48     -15.0452      1.00000
     49      -7.5214      1.00000
     50      -7.4403      1.00000
     51      -7.3724      1.00000
     52      -6.8336      1.00000
     53      -6.6681      1.00000
     54      -6.4230      1.00000
     55      -6.2928      1.00000
     56      -6.2680      1.00000
     57      -6.1616      1.00000
     58      -6.0441      1.00000
     59      -5.9960      1.00000
     60      -5.9630      1.00000
     61      -5.9046      1.00000
     62      -5.8633      1.00000
     63      -5.7639      1.00000
     64      -5.7171      1.00000
     65      -5.5977      1.00000
     66      -5.4242      1.00000
     67      -5.1229      1.00000
     68      -5.1083      1.00000
     69      -5.0782      1.00000
     70      -5.0531      1.00000
     71      -5.0193      1.00000
     72      -4.9574      1.00000
     73      -4.8036      1.00000
     74      -4.7922      1.00000
     75      -4.7372      1.00000
     76      -4.7254      1.00000
     77      -4.6985      1.00000
     78      -4.6553      1.00000
     79      -4.6214      1.00000
     80      -4.4970      1.00000
     81      -4.4276      1.00000
     82      -4.3762      1.00000
     83      -4.3412      1.00000
     84      -4.3106      1.00000
     85      -4.2542      1.00000
     86      -4.2333      1.00000
     87      -4.1967      1.00000
     88      -4.1312      1.00000
     89      -4.1196      1.00000
     90      -4.0549      1.00000
     91      -4.0007      1.00000
     92      -3.9762      1.00000
     93      -3.8515      1.00000
     94      -3.8335      1.00000
     95      -3.7727      1.00000
     96      -3.6700      1.00000
     97      -3.6385      1.00000
     98      -3.4414      1.00000
     99      -3.1910      1.00000
    100      -2.9413      1.00000
    101      -2.8835      1.00000
    102      -2.5251      1.00000
    103      -2.4898      1.00000
    104      -1.9482      1.00000
    105      -1.9180      1.00000
    106      -1.7222      1.00000
    107      -1.6600      1.00000
    108      -1.5223      1.00000
    109      -1.4747      1.00000
    110      -1.4470      1.00000
    111      -1.3815      1.00000
    112      -1.3055      1.00000
    113      -1.1663      1.00000
    114      -1.0913      1.00000
    115      -0.8641      1.00000
    116      -0.8382      1.00000
    117      -0.7673      1.00000
    118      -0.5792      1.00000
    119      -0.3128      1.00000
    120       0.0370      1.00000
    121       1.1331      0.00000
    122       1.3492      0.00000
    123       1.6168      0.00000
    124       1.7011      0.00000
    125       2.1633      0.00000
    126       2.2138      0.00000
    127       2.4207      0.00000
    128       2.5172      0.00000
    129       2.5895      0.00000
    130       2.6695      0.00000
    131       2.6802      0.00000
    132       2.6910      0.00000
    133       2.7129      0.00000
    134       2.7205      0.00000
    135       2.8380      0.00000
    136       2.9585      0.00000
    137       2.9723      0.00000
    138       3.0868      0.00000
    139       3.4163      0.00000
    140       3.6593      0.00000
    141       3.7465      0.00000
    142       3.7989      0.00000
    143       3.8772      0.00000
    144       3.9407      0.00000
    145       4.1398      0.00000
    146       4.2043      0.00000
    147       4.2200      0.00000
    148       4.2944      0.00000
    149       4.4878      0.00000
    150       4.5505      0.00000
    151       4.5738      0.00000
    152       4.6832      0.00000
    153       4.8414      0.00000
    154       4.9892      0.00000
    155       5.1246      0.00000
    156       5.2733      0.00000
    157       5.9894      0.00000
    158       6.1877      0.00000
    159       6.4283      0.00000
    160       6.5584      0.00000

 k-point     4 :      -0.1250    0.1250    0.1250
  band No.  band energies     occupation 
      1     -36.1064      1.00000
      2     -36.0758      1.00000
      3     -36.0559      1.00000
      4     -36.0548      1.00000
      5     -36.0241      1.00000
      6     -35.9327      1.00000
      7     -35.2054      1.00000
      8     -35.1763      1.00000
      9     -35.1445      1.00000
     10     -35.1132      1.00000
     11     -34.8021      1.00000
     12     -34.7211      1.00000
     13     -34.5915      1.00000
     14     -34.5348      1.00000
     15     -34.3804      1.00000
     16     -34.3427      1.00000
     17     -34.1973      1.00000
     18     -34.1031      1.00000
     19     -34.0932      1.00000
     20     -33.9592      1.00000
     21     -33.9139      1.00000
     22     -33.8804      1.00000
     23     -33.8131      1.00000
     24     -33.7201      1.00000
     25     -23.9457      1.00000
     26     -23.8001      1.00000
     27     -23.6634      1.00000
     28     -23.5191      1.00000
     29     -23.3854      1.00000
     30     -23.3718      1.00000
     31     -23.3070      1.00000
     32     -23.1408      1.00000
     33     -22.9827      1.00000
     34     -22.9742      1.00000
     35     -22.8056      1.00000
     36     -22.7428      1.00000
     37     -22.5632      1.00000
     38     -22.4085      1.00000
     39     -22.3461      1.00000
     40     -21.2303      1.00000
     41     -17.8043      1.00000
     42     -16.7735      1.00000
     43     -16.1668      1.00000
     44     -15.9810      1.00000
     45     -15.8818      1.00000
     46     -15.7341      1.00000
     47     -15.2422      1.00000
     48     -15.0449      1.00000
     49      -7.5247      1.00000
     50      -7.4445      1.00000
     51      -7.3753      1.00000
     52      -7.1501      1.00000
     53      -6.9708      1.00000
     54      -6.5896      1.00000
     55      -6.3906      1.00000
     56      -6.3192      1.00000
     57      -6.2906      1.00000
     58      -6.1352      1.00000
     59      -5.9642      1.00000
     60      -5.9520      1.00000
     61      -5.9047      1.00000
     62      -5.7818      1.00000
     63      -5.7317      1.00000
     64      -5.5833      1.00000
     65      -5.2345      1.00000
     66      -5.1035      1.00000
     67      -5.0779      1.00000
     68      -5.0503      1.00000
     69      -5.0463      1.00000
     70      -5.0169      1.00000
     71      -4.9118      1.00000
     72      -4.9011      1.00000
     73      -4.8442      1.00000
     74      -4.7785      1.00000
     75      -4.7702      1.00000
     76      -4.7205      1.00000
     77      -4.6353      1.00000
     78      -4.5624      1.00000
     79      -4.4977      1.00000
     80      -4.4707      1.00000
     81      -4.4097      1.00000
     82      -4.4018      1.00000
     83      -4.3455      1.00000
     84      -4.2950      1.00000
     85      -4.2875      1.00000
     86      -4.2574      1.00000
     87      -4.1872      1.00000
     88      -4.1742      1.00000
     89      -4.0986      1.00000
     90      -4.0163      1.00000
     91      -3.9259      1.00000
     92      -3.9173      1.00000
     93      -3.8925      1.00000
     94      -3.7930      1.00000
     95      -3.7843      1.00000
     96      -3.7422      1.00000
     97      -3.6379      1.00000
     98      -3.3455      1.00000
     99      -3.1919      1.00000
    100      -3.0347      1.00000
    101      -2.9287      1.00000
    102      -2.5104      1.00000
    103      -2.4677      1.00000
    104      -1.9840      1.00000
    105      -1.9442      1.00000
    106      -1.9159      1.00000
    107      -1.7154      1.00000
    108      -1.4959      1.00000
    109      -1.4723      1.00000
    110      -1.4386      1.00000
    111      -1.3978      1.00000
    112      -1.2905      1.00000
    113      -1.1572      1.00000
    114      -0.9176      1.00000
    115      -0.8579      1.00000
    116      -0.8105      1.00000
    117      -0.7626      1.00000
    118      -0.5276      1.00000
    119      -0.3113      1.00000
    120       0.0372      1.00000
    121       1.1331      0.00000
    122       1.2846      0.00000
    123       1.5245      0.00000
    124       1.6354      0.00000
    125       2.0914      0.00000
    126       2.1634      0.00000
    127       2.4127      0.00000
    128       2.4383      0.00000
    129       2.5514      0.00000
    130       2.5974      0.00000
    131       2.6692      0.00000
    132       2.6938      0.00000
    133       2.7137      0.00000
    134       2.7694      0.00000
    135       2.7948      0.00000
    136       2.8059      0.00000
    137       3.0789      0.00000
    138       3.0912      0.00000
    139       3.3942      0.00000
    140       3.4894      0.00000
    141       3.6388      0.00000
    142       3.6646      0.00000
    143       3.7964      0.00000
    144       3.8230      0.00000
    145       3.8865      0.00000
    146       4.0511      0.00000
    147       4.1874      0.00000
    148       4.2339      0.00000
    149       4.5051      0.00000
    150       4.5584      0.00000
    151       4.7046      0.00000
    152       4.8065      0.00000
    153       4.9848      0.00000
    154       5.1699      0.00000
    155       5.2189      0.00000
    156       5.4326      0.00000
    157       6.0041      0.00000
    158       6.1286      0.00000
    159       6.2828      0.00000
    160       6.9738      0.00000

 k-point     5 :       0.1250    0.3750    0.1250
  band No.  band energies     occupation 
      1     -36.1047      1.00000
      2     -36.0758      1.00000
      3     -36.0548      1.00000
      4     -36.0542      1.00000
      5     -36.0241      1.00000
      6     -35.9327      1.00000
      7     -35.2077      1.00000
      8     -35.1786      1.00000
      9     -35.1445      1.00000
     10     -35.1132      1.00000
     11     -34.8021      1.00000
     12     -34.7211      1.00000
     13     -34.5915      1.00000
     14     -34.5248      1.00000
     15     -34.3804      1.00000
     16     -34.3534      1.00000
     17     -34.1973      1.00000
     18     -34.1031      1.00000
     19     -34.0932      1.00000
     20     -33.9478      1.00000
     21     -33.9139      1.00000
     22     -33.8922      1.00000
     23     -33.8131      1.00000
     24     -33.7201      1.00000
     25     -23.8974      1.00000
     26     -23.7063      1.00000
     27     -23.6019      1.00000
     28     -23.5284      1.00000
     29     -23.4822      1.00000
     30     -23.4380      1.00000
     31     -23.3529      1.00000
     32     -23.1403      1.00000
     33     -22.9741      1.00000
     34     -22.9700      1.00000
     35     -22.8031      1.00000
     36     -22.6389      1.00000
     37     -22.5634      1.00000
     38     -22.4662      1.00000
     39     -22.4085      1.00000
     40     -21.2254      1.00000
     41     -17.8042      1.00000
     42     -16.7730      1.00000
     43     -16.1720      1.00000
     44     -15.9863      1.00000
     45     -15.8819      1.00000
     46     -15.7392      1.00000
     47     -15.2415      1.00000
     48     -15.0457      1.00000
     49      -7.5047      1.00000
     50      -7.1615      1.00000
     51      -7.0802      1.00000
     52      -7.0201      1.00000
     53      -6.9612      1.00000
     54      -6.5949      1.00000
     55      -6.5103      1.00000
     56      -6.4165      1.00000
     57      -6.3268      1.00000
     58      -6.1386      1.00000
     59      -5.9760      1.00000
     60      -5.9573      1.00000
     61      -5.8206      1.00000
     62      -5.7348      1.00000
     63      -5.6708      1.00000
     64      -5.5911      1.00000
     65      -5.4125      1.00000
     66      -5.2804      1.00000
     67      -5.2447      1.00000
     68      -5.1741      1.00000
     69      -5.1055      1.00000
     70      -5.0869      1.00000
     71      -5.0515      1.00000
     72      -4.9773      1.00000
     73      -4.9274      1.00000
     74      -4.9026      1.00000
     75      -4.7852      1.00000
     76      -4.6441      1.00000
     77      -4.6028      1.00000
     78      -4.5753      1.00000
     79      -4.4255      1.00000
     80      -4.3681      1.00000
     81      -4.3462      1.00000
     82      -4.3232      1.00000
     83      -4.2655      1.00000
     84      -4.2405      1.00000
     85      -4.2175      1.00000
     86      -4.1943      1.00000
     87      -4.1486      1.00000
     88      -4.1009      1.00000
     89      -4.0363      1.00000
     90      -4.0186      1.00000
     91      -3.9558      1.00000
     92      -3.9406      1.00000
     93      -3.9100      1.00000
     94      -3.8609      1.00000
     95      -3.7935      1.00000
     96      -3.7426      1.00000
     97      -3.6922      1.00000
     98      -3.4419      1.00000
     99      -3.0346      1.00000
    100      -3.0285      1.00000
    101      -3.0092      1.00000
    102      -2.8839      1.00000
    103      -2.4912      1.00000
    104      -2.1898      1.00000
    105      -1.9832      1.00000
    106      -1.9802      1.00000
    107      -1.7273      1.00000
    108      -1.5031      1.00000
    109      -1.4499      1.00000
    110      -1.4278      1.00000
    111      -1.2954      1.00000
    112      -1.1786      1.00000
    113      -0.9938      1.00000
    114      -0.9178      1.00000
    115      -0.8743      1.00000
    116      -0.8170      1.00000
    117      -0.7284      1.00000
    118      -0.5355      1.00000
    119      -0.4777      1.00000
    120      -0.0883      1.00000
    121       1.2534      0.00000
    122       1.2846      0.00000
    123       1.6535      0.00000
    124       1.7698      0.00000
    125       2.0348      0.00000
    126       2.0918      0.00000
    127       2.3240      0.00000
    128       2.4351      0.00000
    129       2.6082      0.00000
    130       2.6545      0.00000
    131       2.7435      0.00000
    132       2.7966      0.00000
    133       2.8864      0.00000
    134       2.9412      0.00000
    135       2.9597      0.00000
    136       3.0720      0.00000
    137       3.0855      0.00000
    138       3.2405      0.00000
    139       3.3206      0.00000
    140       3.3882      0.00000
    141       3.4878      0.00000
    142       3.5896      0.00000
    143       3.7685      0.00000
    144       3.8693      0.00000
    145       3.8859      0.00000
    146       4.0571      0.00000
    147       4.2803      0.00000
    148       4.5042      0.00000
    149       4.5770      0.00000
    150       4.6705      0.00000
    151       4.7047      0.00000
    152       4.7543      0.00000
    153       4.9225      0.00000
    154       5.0027      0.00000
    155       5.1611      0.00000
    156       5.3900      0.00000
    157       5.7112      0.00000
    158       6.2505      0.00000
    159       6.4714      0.00000
    160       6.9751      0.00000

 k-point     6 :       0.3750    0.3750    0.1250
  band No.  band energies     occupation 
      1     -36.1047      1.00000
      2     -36.0751      1.00000
      3     -36.0548      1.00000
      4     -36.0542      1.00000
      5     -36.0236      1.00000
      6     -35.9327      1.00000
      7     -35.2077      1.00000
      8     -35.1786      1.00000
      9     -35.1428      1.00000
     10     -35.1120      1.00000
     11     -34.8021      1.00000
     12     -34.7211      1.00000
     13     -34.5928      1.00000
     14     -34.5248      1.00000
     15     -34.3827      1.00000
     16     -34.3534      1.00000
     17     -34.1984      1.00000
     18     -34.1049      1.00000
     19     -34.0932      1.00000
     20     -33.9478      1.00000
     21     -33.9139      1.00000
     22     -33.8922      1.00000
     23     -33.8131      1.00000
     24     -33.7201      1.00000
     25     -23.8869      1.00000
     26     -23.6970      1.00000
     27     -23.5990      1.00000
     28     -23.5089      1.00000
     29     -23.4354      1.00000
     30     -23.4187      1.00000
     31     -23.2808      1.00000
     32     -23.2397      1.00000
     33     -23.0631      1.00000
     34     -22.8634      1.00000
     35     -22.7073      1.00000
     36     -22.7028      1.00000
     37     -22.6098      1.00000
     38     -22.5147      1.00000
     39     -22.4624      1.00000
     40     -21.2247      1.00000
     41     -17.8041      1.00000
     42     -16.7727      1.00000
     43     -16.1713      1.00000
     44     -15.9858      1.00000
     45     -15.8817      1.00000
     46     -15.7391      1.00000
     47     -15.2415      1.00000
     48     -15.0459      1.00000
     49      -7.5032      1.00000
     50      -7.0918      1.00000
     51      -7.0094      1.00000
     52      -6.8283      1.00000
     53      -6.6675      1.00000
     54      -6.5414      1.00000
     55      -6.3751      1.00000
     56      -6.2935      1.00000
     57      -6.2130      1.00000
     58      -6.0433      1.00000
     59      -6.0315      1.00000
     60      -5.9613      1.00000
     61      -5.9514      1.00000
     62      -5.7737      1.00000
     63      -5.7547      1.00000
     64      -5.6529      1.00000
     65      -5.5373      1.00000
     66      -5.4071      1.00000
     67      -5.3462      1.00000
     68      -5.2605      1.00000
     69      -5.1338      1.00000
     70      -5.1120      1.00000
     71      -5.0557      1.00000
     72      -5.0287      1.00000
     73      -4.9871      1.00000
     74      -4.9245      1.00000
     75      -4.7949      1.00000
     76      -4.7437      1.00000
     77      -4.7313      1.00000
     78      -4.5945      1.00000
     79      -4.5338      1.00000
     80      -4.4586      1.00000
     81      -4.4432      1.00000
     82      -4.3619      1.00000
     83      -4.3114      1.00000
     84      -4.2633      1.00000
     85      -4.2185      1.00000
     86      -4.1640      1.00000
     87      -4.1172      1.00000
     88      -4.0957      1.00000
     89      -4.0883      1.00000
     90      -4.0580      1.00000
     91      -3.9821      1.00000
     92      -3.9565      1.00000
     93      -3.9203      1.00000
     94      -3.8614      1.00000
     95      -3.8307      1.00000
     96      -3.6816      1.00000
     97      -3.6371      1.00000
     98      -3.4647      1.00000
     99      -3.0264      1.00000
    100      -3.0174      1.00000
    101      -2.9139      1.00000
    102      -2.8686      1.00000
    103      -2.4865      1.00000
    104      -2.1907      1.00000
    105      -1.9850      1.00000
    106      -1.7330      1.00000
    107      -1.6602      1.00000
    108      -1.5199      1.00000
    109      -1.4567      1.00000
    110      -1.4033      1.00000
    111      -1.3096      1.00000
    112      -1.1871      1.00000
    113      -1.0926      1.00000
    114      -0.9946      1.00000
    115      -0.8831      1.00000
    116      -0.8426      1.00000
    117      -0.7311      1.00000
    118      -0.5901      1.00000
    119      -0.4798      1.00000
    120      -0.0889      1.00000
    121       1.2534      0.00000
    122       1.3491      0.00000
    123       1.7149      0.00000
    124       1.7978      0.00000
    125       2.0349      0.00000
    126       2.2143      0.00000
    127       2.4140      0.00000
    128       2.4839      0.00000
    129       2.6423      0.00000
    130       2.6935      0.00000
    131       2.7227      0.00000
    132       2.7810      0.00000
    133       2.8603      0.00000
    134       2.8875      0.00000
    135       2.9648      0.00000
    136       3.1375      0.00000
    137       3.2263      0.00000
    138       3.2712      0.00000
    139       3.3737      0.00000
    140       3.4834      0.00000
    141       3.7737      0.00000
    142       3.8740      0.00000
    143       3.8784      0.00000
    144       3.9448      0.00000
    145       3.9904      0.00000
    146       4.1013      0.00000
    147       4.2536      0.00000
    148       4.4496      0.00000
    149       4.5062      0.00000
    150       4.5854      0.00000
    151       4.6822      0.00000
    152       4.7113      0.00000
    153       4.7985      0.00000
    154       4.9016      0.00000
    155       4.9285      0.00000
    156       5.2875      0.00000
    157       5.6362      0.00000
    158       6.2010      0.00000
    159       6.6447      0.00000
    160       6.8133      0.00000

 k-point     7 :      -0.3750    0.3750    0.1250
  band No.  band energies     occupation 
      1     -36.1047      1.00000
      2     -36.0751      1.00000
      3     -36.0548      1.00000
      4     -36.0542      1.00000
      5     -36.0236      1.00000
      6     -35.9327      1.00000
      7     -35.2077      1.00000
      8     -35.1786      1.00000
      9     -35.1428      1.00000
     10     -35.1120      1.00000
     11     -34.8021      1.00000
     12     -34.7211      1.00000
     13     -34.5928      1.00000
     14     -34.5248      1.00000
     15     -34.3827      1.00000
     16     -34.3534      1.00000
     17     -34.1984      1.00000
     18     -34.1049      1.00000
     19     -34.0932      1.00000
     20     -33.9478      1.00000
     21     -33.9139      1.00000
     22     -33.8922      1.00000
     23     -33.8131      1.00000
     24     -33.7201      1.00000
     25     -23.8869      1.00000
     26     -23.6970      1.00000
     27     -23.5990      1.00000
     28     -23.5089      1.00000
     29     -23.4354      1.00000
     30     -23.4187      1.00000
     31     -23.2808      1.00000
     32     -23.2397      1.00000
     33     -23.0631      1.00000
     34     -22.8634      1.00000
     35     -22.7073      1.00000
     36     -22.7028      1.00000
     37     -22.6098      1.00000
     38     -22.5147      1.00000
     39     -22.4624      1.00000
     40     -21.2247      1.00000
     41     -17.8041      1.00000
     42     -16.7727      1.00000
     43     -16.1713      1.00000
     44     -15.9858      1.00000
     45     -15.8817      1.00000
     46     -15.7391      1.00000
     47     -15.2415      1.00000
     48     -15.0459      1.00000
     49      -7.5032      1.00000
     50      -7.0918      1.00000
     51      -7.0094      1.00000
     52      -6.8283      1.00000
     53      -6.6675      1.00000
     54      -6.5414      1.00000
     55      -6.3751      1.00000
     56      -6.2935      1.00000
     57      -6.2130      1.00000
     58      -6.0433      1.00000
     59      -6.0315      1.00000
     60      -5.9613      1.00000
     61      -5.9514      1.00000
     62      -5.7737      1.00000
     63      -5.7547      1.00000
     64      -5.6529      1.00000
     65      -5.5373      1.00000
     66      -5.4071      1.00000
     67      -5.3462      1.00000
     68      -5.2605      1.00000
     69      -5.1338      1.00000
     70      -5.1120      1.00000
     71      -5.0557      1.00000
     72      -5.0287      1.00000
     73      -4.9871      1.00000
     74      -4.9245      1.00000
     75      -4.7949      1.00000
     76      -4.7437      1.00000
     77      -4.7313      1.00000
     78      -4.5945      1.00000
     79      -4.5338      1.00000
     80      -4.4586      1.00000
     81      -4.4432      1.00000
     82      -4.3619      1.00000
     83      -4.3114      1.00000
     84      -4.2633      1.00000
     85      -4.2185      1.00000
     86      -4.1640      1.00000
     87      -4.1172      1.00000
     88      -4.0957      1.00000
     89      -4.0883      1.00000
     90      -4.0580      1.00000
     91      -3.9821      1.00000
     92      -3.9565      1.00000
     93      -3.9203      1.00000
     94      -3.8614      1.00000
     95      -3.8307      1.00000
     96      -3.6816      1.00000
     97      -3.6371      1.00000
     98      -3.4647      1.00000
     99      -3.0264      1.00000
    100      -3.0174      1.00000
    101      -2.9139      1.00000
    102      -2.8686      1.00000
    103      -2.4865      1.00000
    104      -2.1907      1.00000
    105      -1.9850      1.00000
    106      -1.7330      1.00000
    107      -1.6602      1.00000
    108      -1.5199      1.00000
    109      -1.4567      1.00000
    110      -1.4033      1.00000
    111      -1.3096      1.00000
    112      -1.1871      1.00000
    113      -1.0926      1.00000
    114      -0.9946      1.00000
    115      -0.8831      1.00000
    116      -0.8426      1.00000
    117      -0.7311      1.00000
    118      -0.5901      1.00000
    119      -0.4798      1.00000
    120      -0.0889      1.00000
    121       1.2534      0.00000
    122       1.3491      0.00000
    123       1.7149      0.00000
    124       1.7978      0.00000
    125       2.0349      0.00000
    126       2.2143      0.00000
    127       2.4140      0.00000
[...]
 -0.000  -0.000   0.000  -0.000   0.000  -0.000  -0.000  -0.000  -0.000   0.000   0.000   0.000   0.000  -0.000  -0.000   0.000
 -0.000   0.000  -0.000   0.000   0.000   0.000   0.000   0.000  -0.000   0.000   0.000  -0.000  -0.000   0.000  -0.000  -0.000
 -0.000   0.000   0.000   0.000   0.000  -0.000   0.000  -0.000  -0.000   0.000  -0.000  -0.000  -0.000   0.000  -0.000  -0.000
 -0.000   0.000   0.000  -0.000  -0.000   0.000   0.000  -0.000   0.000   0.000  -0.000  -0.000  -0.000  -0.000  -0.000   0.000
 -0.000  -0.000   0.000  -0.000  -0.000  -0.000   0.000   0.000  -0.000  -0.000   0.000   0.000  -0.000   0.000  -0.000  -0.000
  0.000   0.000  -0.000   0.000  -0.000  -0.000  -0.000   0.000   0.000  -0.000  -0.000  -0.000  -0.000  -0.000   0.000  -0.000
  0.000  -0.000  -0.000  -0.000   0.000  -0.000   0.000  -0.000   0.000   0.000  -0.000  -0.000   0.000  -0.000  -0.000   0.000
 -0.000   0.000   0.000   0.000   0.000  -0.000   0.000   0.000   0.000  -0.000  -0.000  -0.000  -0.000  -0.000   0.000   0.000
 -0.000   0.000  -0.000   0.000   0.000  -0.000   0.000   0.000   0.000   0.000  -0.000  -0.000  -0.000  -0.000  -0.000   0.000


------------------------ aborting loop because EDIFF is reached ----------------------------------------


 


 total charge     
 
# of ion       s       p       d       tot
------------------------------------------
    1        0.325   6.498   1.756   8.578
    2        0.325   6.499   1.749   8.573
    3        0.302   6.469   1.720   8.491
    4        0.303   6.469   1.713   8.485
    5        0.297   6.473   1.759   8.529
    6        0.304   6.447   1.743   8.494
    7        0.299   6.473   1.750   8.522
    8        0.305   6.450   1.714   8.469
    9        1.567   3.456   0.000   5.023
   10        1.576   3.494   0.000   5.069
   11        1.570   3.453   0.000   5.023
   12        1.569   3.451   0.000   5.020
   13        1.569   3.454   0.000   5.023
   14        1.568   3.452   0.000   5.020
   15        1.569   3.452   0.000   5.022
   16        1.569   3.452   0.000   5.022
   17        1.730   4.378   0.000   6.108
   18        1.731   4.375   0.000   6.105
   19        1.729   4.381   0.000   6.110
   20        1.730   4.378   0.000   6.108
   21        1.730   4.378   0.000   6.108
   22        1.731   4.375   0.000   6.105
   23        1.729   4.381   0.000   6.110
   24        1.730   4.378   0.000   6.108
   25        1.730   4.383   0.000   6.113
   26        1.730   4.383   0.000   6.113
   27        1.730   4.383   0.000   6.113
   28        1.730   4.383   0.000   6.112
   29        1.730   4.389   0.000   6.119
   30        1.728   4.360   0.000   6.088
   31        1.729   4.386   0.000   6.116
   32        1.733   4.398   0.000   6.130
--------------------------------------------------
tot         42.697 149.532  13.903 206.132
 


 magnetization (x)
 
# of ion       s       p       d       tot
------------------------------------------
    1       -0.000   0.000  -0.000  -0.000
    2       -0.000  -0.000   0.000  -0.000
    3       -0.000   0.000   0.000   0.000
    4        0.000   0.000   0.000   0.000
    5       -0.000  -0.000  -0.000  -0.000
    6       -0.000  -0.000  -0.000  -0.000
    7       -0.000   0.000  -0.000   0.000
    8       -0.000   0.000  -0.000  -0.000
    9       -0.000  -0.000   0.000  -0.000
   10        0.000  -0.000   0.000  -0.000
   11        0.000  -0.000   0.000  -0.000
   12       -0.000  -0.000   0.000  -0.000
   13        0.000  -0.000   0.000   0.000
   14        0.000   0.000   0.000   0.000
   15       -0.000  -0.000   0.000  -0.000
   16       -0.000  -0.000   0.000  -0.000
   17       -0.000   0.000   0.000   0.000
   18       -0.000  -0.000   0.000  -0.000
   19       -0.000  -0.000   0.000  -0.000
   20       -0.000  -0.000   0.000  -0.000
   21       -0.000   0.000   0.000  -0.000
   22       -0.000  -0.000   0.000  -0.000
   23        0.000  -0.000   0.000   0.000
   24       -0.000  -0.000   0.000  -0.000
   25       -0.000  -0.000   0.000  -0.000
   26        0.000   0.000   0.000   0.000
   27        0.000  -0.000   0.000   0.000
   28        0.000  -0.000   0.000  -0.000
   29        0.000  -0.000   0.000  -0.000
   30        0.000  -0.000   0.000  -0.000
   31        0.000   0.000   0.000   0.000
   32       -0.000  -0.000   0.000  -0.000
--------------------------------------------------
tot         -0.000  -0.000   0.000  -0.000
 
    CHARGE:  cpu time    1.1398: real time    1.1387
    FORLOC:  cpu time    0.0100: real time    0.0090
    FORNL :  cpu time    6.2381: real time    6.2269
    STRESS:  cpu time   18.9141: real time   18.8911
    FORCOR:  cpu time    0.1200: real time    0.1194
    FORHAR:  cpu time    0.0200: real time    0.0197
    MIXING:  cpu time    0.0380: real time    0.0383
    OFIELD:  cpu time    0.0000: real time    0.0000

  FORCE on cell =-STRESS in cart. coord.  units (eV):
  Direction    XX          YY          ZZ          XY          YZ          ZX
  --------------------------------------------------------------------------------------
  Alpha Z   754.37915   754.37915   754.37915
  Ewald   -4379.05887 -4310.37361 -4056.13579    -0.00423    -1.30879    -0.00279
  Hartree  2676.01804  2725.07428  2874.36544    -0.00227    -0.59981    -0.00146
  E(xc)   -1231.60632 -1231.69494 -1232.37375    -0.00000    -0.00030    -0.00000
  Local   -1932.79113 -2065.60232 -2558.37586     0.00642     1.87662     0.00421
  n-local  -973.84505  -970.44636  -954.69275    -0.00003    -0.01066    -0.00002
  augment   743.88081   748.38752   779.48045     0.00001    -0.00028    -0.00000
  Kinetic  4343.03179  4350.28044  4393.37313     0.00017     0.04391     0.00014
  Fock        0.00000     0.00000     0.00000     0.00000     0.00000     0.00000
  -------------------------------------------------------------------------------------
  Total       0.00842     0.00416     0.02001     0.00007     0.00069     0.00007
  in kB       0.02905     0.01436     0.06908     0.00024     0.00239     0.00024
  external pressure =        0.04 kB  Pullay stress =        0.00 kB


 VOLUME and BASIS-vectors are now :
 -----------------------------------------------------------------------------
  energy-cutoff  :      700.00
  volume of cell :      464.18
      direct lattice vectors                 reciprocal lattice vectors
     7.913806703 -0.000003431 -0.000002347     0.126361439  0.000000055  0.000000037
    -0.000003407  7.855306553 -0.000071516     0.000000055  0.127302479  0.000001381
    -0.000002209 -0.000080999  7.466822887     0.000000040  0.000001219  0.133925769

  length of vectors
     7.913806703  7.855306553  7.466822888     0.126361439  0.127302479  0.133925769


 FORCES acting on ions
    electron-ion (+dipol)            ewald-force                    non-local-force                 convergence-correction
 -----------------------------------------------------------------------------------------------
   0.996E-04 -.356E+00 0.284E+02   -.105E-03 0.346E+00 -.288E+02   -.163E-05 0.979E-02 0.407E+00   -.150E-05 0.195E-03 -.557E-03
   -.194E-04 0.871E+00 -.292E+02   0.261E-04 -.870E+00 0.297E+02   -.997E-06 -.240E-02 -.494E+00   -.100E-05 0.277E-03 0.327E-03
   -.137E-03 0.500E+00 0.124E+02   0.135E-03 -.479E+00 -.124E+02   0.115E-05 -.191E-01 -.220E-01   -.659E-06 -.585E-04 -.531E-03
   0.250E-03 -.181E+01 -.137E+02   -.254E-03 0.179E+01 0.137E+02   -.160E-05 0.165E-01 0.792E-02   -.874E-07 -.375E-03 -.218E-03
   0.287E-03 0.702E+01 0.129E+02   -.279E-03 -.691E+01 -.129E+02   -.797E-05 -.112E+00 0.598E-02   0.192E-05 0.428E-03 0.138E-04
   0.824E-04 -.184E+01 -.133E+02   -.859E-04 0.837E+00 0.133E+02   -.175E-06 0.998E+00 0.284E-01   0.706E-06 0.152E-02 0.261E-03
   0.183E-03 -.813E+01 0.307E+01   -.180E-03 0.799E+01 -.306E+01   -.305E-05 0.137E+00 -.178E-02   0.614E-06 0.472E-04 -.443E-04
   0.735E-04 -.426E+01 -.316E+01   -.623E-04 0.530E+01 0.316E+01   -.414E-05 -.104E+01 -.368E-03   0.298E-06 -.171E-02 0.223E-03
   -.117E-03 0.147E+02 -.400E+01   0.122E-03 -.161E+02 0.403E+01   -.471E-05 0.143E+01 -.325E-01   0.332E-06 0.181E-02 -.110E-04
   -.127E-04 0.508E+00 0.531E+01   0.168E-04 -.549E+00 -.575E+01   -.452E-05 0.418E-01 0.447E+00   -.774E-06 0.149E-03 -.193E-02
   0.109E-04 -.685E+00 -.253E+01   -.987E-05 0.719E+00 0.255E+01   -.135E-05 -.339E-01 -.254E-01   -.217E-06 -.173E-03 0.110E-03
   -.569E-04 -.699E+00 0.518E+01   0.594E-04 0.734E+00 -.551E+01   -.207E-05 -.338E-01 0.332E+00   -.178E-06 -.146E-03 0.322E-03
   0.778E-04 -.997E+01 -.324E+02   -.794E-04 0.114E+02 0.339E+02   -.962E-08 -.142E+01 -.159E+01   0.877E-06 -.447E-04 0.108E-02
   -.184E-04 -.963E+01 0.327E+02   0.234E-04 0.110E+02 -.342E+02   -.734E-05 -.139E+01 0.154E+01   0.825E-06 -.556E-04 -.128E-02
   -.292E-04 0.737E+01 -.279E+02   0.392E-04 -.846E+01 0.291E+02   -.114E-04 0.109E+01 -.125E+01   0.248E-06 -.470E-05 -.316E-02
   0.233E-04 0.742E+01 0.282E+02   -.127E-04 -.851E+01 -.295E+02   -.135E-04 0.109E+01 0.128E+01   0.245E-06 -.120E-04 0.303E-02
   -.679E+02 0.164E+01 0.228E+00   0.749E+02 -.172E+01 0.172E+01   -.700E+01 0.741E-01 -.195E+01   0.150E-02 -.996E-05 0.452E-03
   -.863E+02 -.620E+01 -.632E+00   0.947E+02 0.752E+01 -.125E+01   -.844E+01 -.133E+01 0.188E+01   0.698E-03 0.218E-03 -.332E-03
   -.282E+02 -.170E+01 0.435E+01   0.317E+02 0.173E+01 -.436E+01   -.350E+01 -.328E-01 0.133E-01   0.151E-02 0.215E-03 0.841E-04
   -.453E+02 0.540E+01 -.480E+01   0.500E+02 -.658E+01 0.487E+01   -.475E+01 0.118E+01 -.760E-01   -.806E-03 -.520E-03 -.211E-04
   0.679E+02 0.164E+01 0.228E+00   -.749E+02 -.172E+01 0.172E+01   0.700E+01 0.740E-01 -.195E+01   -.150E-02 -.978E-05 0.452E-03
   0.863E+02 -.620E+01 -.632E+00   -.947E+02 0.752E+01 -.125E+01   0.844E+01 -.133E+01 0.188E+01   -.698E-03 0.218E-03 -.333E-03
   0.282E+02 -.170E+01 0.435E+01   -.317E+02 0.173E+01 -.436E+01   0.350E+01 -.328E-01 0.133E-01   -.151E-02 0.215E-03 0.841E-04
   0.453E+02 0.540E+01 -.480E+01   -.500E+02 -.658E+01 0.487E+01   0.475E+01 0.118E+01 -.760E-01   0.806E-03 -.519E-03 -.211E-04
   0.137E-03 -.462E+02 0.114E+00   -.193E-03 0.506E+02 0.185E+01   0.616E-04 -.441E+01 -.196E+01   -.852E-06 0.176E-02 0.428E-03
   -.124E-03 -.454E+02 -.119E+01   0.123E-03 0.497E+02 -.565E+00   0.381E-05 -.432E+01 0.176E+01   -.511E-06 -.358E-04 -.366E-03
   -.568E-04 0.462E+02 0.119E+00   0.780E-04 -.506E+02 0.184E+01   -.230E-04 0.444E+01 -.196E+01   -.859E-06 -.164E-02 0.414E-03
   0.503E-04 0.461E+02 -.130E+01   -.219E-04 -.505E+02 -.436E+00   -.316E-04 0.436E+01 0.174E+01   -.333E-06 0.128E-03 -.339E-03
   0.430E-04 -.617E+01 0.450E+01   -.207E-04 0.705E+01 -.454E+01   -.250E-04 -.879E+00 0.425E-01   0.104E-05 0.194E-02 0.137E-03
   0.878E-04 -.195E+01 -.456E+01   -.723E-04 0.185E+01 0.458E+01   -.184E-04 0.104E+00 -.180E-01   0.332E-06 -.143E-02 -.125E-04
   0.506E-04 0.685E+01 0.449E+01   -.534E-04 -.771E+01 -.453E+01   0.161E-05 0.863E+00 0.478E-01   0.977E-06 -.206E-02 0.141E-03
   -.126E-03 0.472E+00 -.239E+01   0.141E-03 -.513E+00 0.239E+01   -.146E-04 0.415E-01 -.607E-02   -.121E-05 0.211E-03 0.179E-02
 -----------------------------------------------------------------------------------------------
   0.115E-03 -.745E+00 -.182E-03   0.183E-12 0.702E-13 0.187E-13   -.115E-03 0.742E+00 -.172E-03   -.466E-06 0.523E-03 0.199E-03
 
 
 POSITION                                       TOTAL-FORCE (eV/Angst)
 -----------------------------------------------------------------------------------
     -0.00000      0.00044      7.38632        -0.000008     -0.000066     -0.001373
     -0.00000      0.00161      3.80536         0.000005     -0.001004     -0.004514
      7.91380      3.92832      0.00090        -0.000002      0.002361     -0.004670
      7.91380      3.92635      3.72940        -0.000006      0.000232     -0.005999
      3.95690      0.00890      0.00350         0.000002     -0.000192      0.001587
      3.95690      7.73101      3.73199        -0.000003     -0.007603      0.000293
      3.95690      3.92545      0.00038         0.000000      0.003076      0.000639
      3.95690      4.02330      3.73374         0.000007      0.003193      0.000120
      3.95690      5.90154      3.73479         0.000000     -0.001052      0.000860
     -0.00000      7.85423      5.60186        -0.000001      0.000785      0.005734
      7.91380      3.93030      1.86410        -0.000001      0.000526      0.000674
      7.91380      3.93031      5.60472         0.000000      0.001114      0.001600
      3.95690      0.02858      1.83742        -0.000001      0.001770     -0.000706
      3.95690      0.02806      5.63139        -0.000002      0.001044      0.001197
      3.95690      3.90509      1.84256        -0.000001     -0.004310      0.002691
      3.95690      3.90496      5.62547        -0.000003     -0.004368     -0.000639
      1.90881      7.85466      0.03687        -0.001017     -0.001895     -0.000056
      1.89827      0.00639      3.69428         0.000293     -0.002861     -0.001962
      1.94475      3.93056      7.46672         0.000167      0.005776      0.001338
      1.93508      3.91774      3.73505         0.000368     -0.000469      0.001912
      6.00499      7.85466      0.03687         0.001028     -0.001902     -0.000058
      6.01554      0.00639      3.69428        -0.000294     -0.002865     -0.001964
      5.96905      3.93056      7.46672        -0.000165      0.005778      0.001337
      5.97872      3.91774      3.73505        -0.000362     -0.000464      0.001910
      7.91380      1.92144      0.03603         0.000005     -0.000159      0.000523
      7.91380      1.92227      3.69908         0.000002     -0.000622     -0.000675
     -0.00000      5.93523      0.03606        -0.000003      0.002705      0.000881
     -0.00000      5.93403      3.69925        -0.000003      0.000052     -0.000737
      3.95690      1.95960      0.00007        -0.000002      0.000824      0.000422
      3.95690      1.95202      3.73479        -0.000003     -0.001328      0.001127
      3.95690      5.90246     -0.00005        -0.000000      0.001178      0.000789
     -0.00000      7.85428      1.86260        -0.000001      0.000748     -0.002283
 -----------------------------------------------------------------------------------
    total drift:                               -0.000000     -0.002438     -0.000155


--------------------------------------------------------------------------------------------------------



  FREE ENERGIE OF THE ION-ELECTRON SYSTEM (eV)
  ---------------------------------------------------
  free  energy   TOTEN  =      -211.10939864 eV

  energy  without entropy=     -211.10939864  energy(sigma->0) =     -211.10939864
 


--------------------------------------------------------------------------------------------------------


    POTLOK:  cpu time    0.9739: real time    0.9722


--------------------------------------------------------------------------------------------------------


 stress matrix after NEB project (eV)
      0.00842      0.00007      0.00007
      0.00007      0.00416      0.00069
      0.00007      0.00069      0.02001
  FORCES: max atom, RMS     0.007609    0.003500
  FORCE total and by dimension    0.019798    0.007603
  Stress total and by dimension    0.022129    0.020014
 Quasi-Newton relaxation of ions (Broydens 2nd method)
  g(Force)  = 0.189E-04   g(Stress)= 0.738E-06

 Reset! Starting new Quasi-Newton update for ions 


--------------------------------------------------------------------------------------------------------


  
 reached required accuracy - stopping structural energy minimisation
 writing wavefunctions
     LOOP+:  cpu time  109.5893: real time  112.4932
    4ORBIT:  cpu time    0.0000: real time    0.0000
 


 total charge     
 
# of ion       s       p       d       tot
------------------------------------------
    1        0.325   6.498   1.756   8.578
    2        0.325   6.499   1.749   8.573
    3        0.302   6.469   1.720   8.491
    4        0.303   6.469   1.713   8.485
    5        0.297   6.473   1.759   8.529
    6        0.304   6.447   1.743   8.494
    7        0.299   6.473   1.750   8.522
    8        0.305   6.450   1.714   8.469
    9        1.567   3.456   0.000   5.023
   10        1.576   3.494   0.000   5.069
   11        1.570   3.453   0.000   5.023
   12        1.569   3.451   0.000   5.020
   13        1.569   3.454   0.000   5.023
   14        1.568   3.452   0.000   5.020
   15        1.569   3.452   0.000   5.022
   16        1.569   3.452   0.000   5.022
   17        1.730   4.378   0.000   6.108
   18        1.731   4.375   0.000   6.105
   19        1.729   4.381   0.000   6.110
   20        1.730   4.378   0.000   6.108
   21        1.730   4.378   0.000   6.108
   22        1.731   4.375   0.000   6.105
   23        1.729   4.381   0.000   6.110
   24        1.730   4.378   0.000   6.108
   25        1.730   4.383   0.000   6.113
   26        1.730   4.383   0.000   6.113
   27        1.730   4.383   0.000   6.113
   28        1.730   4.383   0.000   6.112
   29        1.730   4.389   0.000   6.119
   30        1.728   4.360   0.000   6.088
   31        1.729   4.386   0.000   6.116
   32        1.733   4.398   0.000   6.130
--------------------------------------------------
tot         42.697 149.532  13.903 206.132
 


 magnetization (x)
 
# of ion       s       p       d       tot
------------------------------------------
    1       -0.000   0.000  -0.000  -0.000
    2       -0.000  -0.000   0.000  -0.000
    3       -0.000   0.000   0.000   0.000
    4        0.000   0.000   0.000   0.000
    5       -0.000  -0.000  -0.000  -0.000
    6       -0.000  -0.000  -0.000  -0.000
    7       -0.000   0.000  -0.000   0.000
    8       -0.000   0.000  -0.000  -0.000
    9       -0.000  -0.000   0.000  -0.000
   10        0.000  -0.000   0.000  -0.000
   11        0.000  -0.000   0.000  -0.000
   12       -0.000  -0.000   0.000  -0.000
   13        0.000  -0.000   0.000   0.000
   14        0.000   0.000   0.000   0.000
   15       -0.000  -0.000   0.000  -0.000
   16       -0.000  -0.000   0.000  -0.000
   17       -0.000   0.000   0.000   0.000
   18       -0.000  -0.000   0.000  -0.000
   19       -0.000  -0.000   0.000  -0.000
   20       -0.000  -0.000   0.000  -0.000
   21       -0.000   0.000   0.000  -0.000
   22       -0.000  -0.000   0.000  -0.000
   23        0.000  -0.000   0.000   0.000
   24       -0.000  -0.000   0.000  -0.000
   25       -0.000  -0.000   0.000  -0.000
   26        0.000   0.000   0.000   0.000
   27        0.000  -0.000   0.000   0.000
   28        0.000  -0.000   0.000  -0.000
   29        0.000  -0.000   0.000  -0.000
   30        0.000  -0.000   0.000  -0.000
   31        0.000   0.000   0.000   0.000
   32       -0.000  -0.000   0.000  -0.000
--------------------------------------------------
tot         -0.000  -0.000   0.000  -0.000
 

 total amount of memory used by VASP MPI-rank0   105117. kBytes
=======================================================================

   base      :      30000. kBytes
   nonlr-proj:       7799. kBytes
   fftplans  :       7712. kBytes
   grid      :       8037. kBytes
   one-center:        124. kBytes
   wavefun   :      51445. kBytes
 
  
  
 General timing and accounting informations for this job:
 ========================================================
  
                  Total CPU time used (sec):      159.142
                            User time (sec):      151.511
                          System time (sec):        7.631
                         Elapsed time (sec):      189.204
  
                   Maximum memory used (kb):      215036.
                   Average memory used (kb):           0.
  
                          Minor page faults:        92239
                          Major page faults:            2
                 Voluntary context switches:        59392
