 vasp.6.3.0 20Jan22 (build Jan 25 2022 13:20:17) complex                        
  
 executed on             LinuxIFC date 2024.06.12  13:14:06
 running on   80 total cores
 distrk:  each k-point on   80 cores,    1 groups
 distr:  one band on NCORE=   8 cores,   10 groups


--------------------------------------------------------------------------------------------------------


 INCAR:
   SYSTEM = LTO
   ISTART = 1
   ENCUT = 700.0
   IALGO = 38
   EDIFF = 1E-6
   PREC = Accurate
   ISPIN = 2
   LMAXMIX = 4
   ADDGRID = .TRUE.
   LASPH = .TRUE.
   LREAL = Auto
   ROPT = 1E-4 1E-4 1E-4
   GGA = PS
   LDAU = .TRUE.
   LDAUTYPE = 2
   LDAUL = 2   -1    -1
   LDAUU = 4.2  0.0  0.0
   LDAUJ = 0.0  0.0  0.0
   NSW = 100
   EDIFFG = -0.01
   IBRION = 1
   ISIF = 3
   ISMEAR = 0
   SIGMA = 0.01
   ISYM = 0
   LORBIT = 11
   NEDOS = 3001
   NWRITE = 2
   NCORE = 8

 POTCAR:   PAW_PBE Ti_pv 07Sep2000                
 POTCAR:   PAW_PBE O 08Apr2002                    
 POTCAR:    PAW_PBE F 08Apr2002                   
 -----------------------------------------------------------------------------
|                                                                             |
|           W    W    AA    RRRRR   N    N  II  N    N   GGGG   !!!           |
|           W    W   A  A   R    R  NN   N  II  NN   N  G    G  !!!           |
|           W    W  A    A  R    R  N N  N  II  N N  N  G       !!!           |
|           W WW W  AAAAAA  RRRRR   N  N N  II  N  N N  G  GGG   !            |
|           WW  WW  A    A  R   R   N   NN  II  N   NN  G    G                |
|           W    W  A    A  R    R  N    N  II  N    N   GGGG   !!!           |
|                                                                             |
|     You use a magnetic or noncollinear calculation, but did not specify     |
|     the initial magnetic moment with the MAGMOM tag. Note that a            |
|     default of 1 will be used for all atoms. This ferromagnetic setup       |
|     may break the symmetry of the crystal, in particular it may rule        |
|     out finding an antiferromagnetic solution. Thence, we recommend         |
|     setting the initial magnetic moment manually or verifying carefully     |
|     that this magnetic setup is desired.                                    |
|                                                                             |
 -----------------------------------------------------------------------------

 POTCAR:   PAW_PBE Ti_pv 07Sep2000                
   VRHFIN =Ti: d3 s1                                                                                
   LEXCH  = PE                                                                                      
   EATOM  =  1042.3781 eV,   76.6126 Ry                                                             
                                                                                                    
   TITEL  = PAW_PBE Ti_pv 07Sep2000                                                                 
   LULTRA =        F    use ultrasoft PP ?                                                          
   IUNSCR =        1    unscreen: 0-lin 1-nonlin 2-no                                               
   RPACOR =    2.200    partial core radius                                                         
   POMASS =   47.880; ZVAL   =   10.000    mass and valenz                                          
   RCORE  =    2.500    outmost cutoff radius                                                       
   RWIGS  =    2.500; RWIGS  =    1.323    wigner-seitz radius (au A)                               
   ENMAX  =  222.338; ENMIN  =  166.753 eV                                                          
   RCLOC  =    1.701    cutoff for local pot                                                        
   LCOR   =        T    correct aug charges                                                         
   LPAW   =        T    paw PP                                                                      
   EAUG   =  482.848                                                                                
   DEXC   =    -.008                                                                                
   RMAX   =    3.092    core radius for proj-oper                                                   
   RAUG   =    1.300    factor for augmentation sphere                                              
   RDEP   =    2.538    radius for radial grids                                                     
   QCUT   =   -4.042; QGAM   =    8.085    optimization parameters                                  
                                                                                                    
   Description                                                                                      
     l     E      TYP  RCUT    TYP  RCUT                                                            
     1   .000     23  2.300                                                                         
     1  -.100     23  2.300                                                                         
     2   .000     23  2.500                                                                         
     2   .000     23  2.500                                                                         
     0   .000     23  2.500                                                                         
     0  1.500     23  2.500                                                                         
     3   .000      7   .000                                                                         
  local pseudopotential read in
  partial core-charges read in
  atomic valenz-charges read in
  non local Contribution for L=           1  read in
    real space projection operators read in
  non local Contribution for L=           1  read in
    real space projection operators read in
  non local Contribution for L=           2  read in
    real space projection operators read in
  non local Contribution for L=           2  read in
    real space projection operators read in
  non local Contribution for L=           0  read in
    real space projection operators read in
  non local Contribution for L=           0  read in
    real space projection operators read in
    PAW grid and wavefunctions read in
 
   number of l-projection  operators is LMAX  =           6
   number of lm-projection operators is LMMAX =          18
 
 POTCAR:   PAW_PBE O 08Apr2002                    
   VRHFIN =O: s2p4                                                                                  
   LEXCH  = PE                                                                                      
   EATOM  =   432.3788 eV,   31.7789 Ry                                                             
                                                                                                    
   TITEL  = PAW_PBE O 08Apr2002                                                                     
   LULTRA =        F    use ultrasoft PP ?                                                          
   IUNSCR =        0    unscreen: 0-lin 1-nonlin 2-no                                               
   RPACOR =     .000    partial core radius                                                         
   POMASS =   16.000; ZVAL   =    6.000    mass and valenz                                          
   RCORE  =    1.520    outmost cutoff radius                                                       
   RWIGS  =    1.550; RWIGS  =     .820    wigner-seitz radius (au A)                               
   ENMAX  =  400.000; ENMIN  =  300.000 eV                                                          
   ICORE  =        2    local potential                                                             
   LCOR   =        T    correct aug charges                                                         
   LPAW   =        T    paw PP                                                                      
   EAUG   =  605.392                                                                                
   DEXC   =     .000                                                                                
   RMAX   =    2.264    core radius for proj-oper                                                   
   RAUG   =    1.300    factor for augmentation sphere                                              
   RDEP   =    1.550    radius for radial grids                                                     
   QCUT   =   -5.520; QGAM   =   11.041    optimization parameters                                  
                                                                                                    
   Description                                                                                      
     l     E      TYP  RCUT    TYP  RCUT                                                            
     0   .000     23  1.200                                                                         
     0  -.700     23  1.200                                                                         
     1   .000     23  1.520                                                                         
     1   .600     23  1.520                                                                         
     2   .000      7  1.500                                                                         
  local pseudopotential read in
  atomic valenz-charges read in
  non local Contribution for L=           0  read in
    real space projection operators read in
  non local Contribution for L=           0  read in
    real space projection operators read in
  non local Contribution for L=           1  read in
    real space projection operators read in
  non local Contribution for L=           1  read in
    real space projection operators read in
    PAW grid and wavefunctions read in
 
   number of l-projection  operators is LMAX  =           4
   number of lm-projection operators is LMMAX =           8
 
 POTCAR:    PAW_PBE F 08Apr2002                   
   VRHFIN =F: s2p5                                                                                  
   LEXCH  = PE                                                                                      
   EATOM  =   659.6475 eV,   48.4827 Ry                                                             
                                                                                                    
   TITEL  = PAW_PBE F 08Apr2002                                                                     
   LULTRA =        F    use ultrasoft PP ?                                                          
   IUNSCR =        1    unscreen: 0-lin 1-nonlin 2-no                                               
   RPACOR =    1.200    partial core radius                                                         
   POMASS =   18.998; ZVAL   =    7.000    mass and valenz                                          
   RCORE  =    1.520    outmost cutoff radius                                                       
   RWIGS  =    1.500; RWIGS  =    0.794    wigner-seitz radius (au A)                               
   ENMAX  =  400.000; ENMIN  =  300.000 eV                                                          
   ICORE  =        2    local potential                                                             
   LCOR   =        T    correct aug charges                                                         
   LPAW   =        T    paw PP                                                                      
   EAUG   =  613.614                                                                                
   RMAX   =    1.555    core radius for proj-oper                                                   
   RAUG   =    1.300    factor for augmentation sphere                                              
   RDEP   =    1.539    radius for radial grids                                                     
   RDEPT  =    1.299    core radius for aug-charge                                                  
                                                                                                    
   Atomic configuration                                                                             
    4 entries                                                                                       
     n  l   j            E        occ.                                                              
     1  0  0.50      -663.3661   2.0000                                                             
     2  0  0.50       -29.8995   2.0000                                                             
     2  1  0.50       -11.1114   5.0000                                                             
     3  2  1.50       -10.8847   0.0000                                                             
   Description                                                                                      
     l       E           TYP  RCUT    TYP  RCUT                                                     
     0    -29.8995018     23  1.200                                                                 
     0     -9.5240782     23  1.200                                                                 
     1    -11.1113914     23  1.520                                                                 
     1      1.3605826     23  1.520                                                                 
     2    -10.8846608      7  1.500                                                                 
  local pseudopotential read in
  partial core-charges read in
  partial kinetic energy density read in
  atomic valenz-charges read in
  non local Contribution for L=           0  read in
    real space projection operators read in
  non local Contribution for L=           0  read in
    real space projection operators read in
  non local Contribution for L=           1  read in
    real space projection operators read in
  non local Contribution for L=           1  read in
    real space projection operators read in
    PAW grid and wavefunctions read in
 
   number of l-projection  operators is LMAX  =           4
   number of lm-projection operators is LMMAX =           8
 
 Optimization of the real space projectors (new method)

 maximal supplied QI-value         = 15.12
 optimisation between [QCUT,QGAM] = [ 13.45, 27.06] = [ 50.69,205.06] Ry 
 Optimized for a Real-space Cutoff    1.49 Angstroem

   l    n(q)    QCUT    max X(q) W(low)/X(q) W(high)/X(q)  e(spline) 
   1     12    13.455     4.841    0.13E-05    0.83E-06    0.56E-07
   1     12    13.455     5.701    0.32E-04    0.25E-04    0.17E-06
   2     11    13.455     4.569    0.64E-05    0.34E-05    0.50E-07
   2     11    13.455    32.276    0.49E-04    0.38E-04    0.46E-06
   0     12    13.455    30.046    0.17E-04    0.41E-05    0.51E-07
   0     12    13.455    45.433    0.12E-04    0.27E-04    0.38E-06
 Optimization of the real space projectors (new method)

 maximal supplied QI-value         = 24.76
 optimisation between [QCUT,QGAM] = [ 13.37, 26.98] = [ 50.04,203.89] Ry 
 Optimized for a Real-space Cutoff    1.17 Angstroem

   l    n(q)    QCUT    max X(q) W(low)/X(q) W(high)/X(q)  e(spline) 
   0      9    13.368     4.192    0.20E-04    0.58E-05    0.56E-07
   0      9    13.368     8.473    0.60E-04    0.52E-04    0.21E-06
   1      9    13.368     2.474    0.22E-04    0.17E-04    0.28E-07
   1      9    13.368     3.912    0.94E-04    0.97E-04    0.20E-06
 Optimization of the real space projectors (new method)

 maximal supplied QI-value         = 24.76
 optimisation between [QCUT,QGAM] = [ 13.37, 26.98] = [ 50.04,203.89] Ry 
 Optimized for a Real-space Cutoff    1.17 Angstroem

   l    n(q)    QCUT    max X(q) W(low)/X(q) W(high)/X(q)  e(spline) 
   0      9    13.368    14.049    0.39E-04    0.34E-04    0.16E-06
   0      9    13.368     8.945    0.54E-04    0.47E-04    0.20E-06
   1      9    13.368     7.086    0.99E-04    0.10E-03    0.23E-06
   1      9    13.368     6.747    0.86E-04    0.89E-04    0.21E-06
 -----------------------------------------------------------------------------
|                                                                             |
|               ----> ADVICE to this user running VASP <----                  |
|                                                                             |
|     You enforced a specific xc type in the INCAR file but a different       |
|     type was found in the POTCAR file.                                      |
|     I HOPE YOU KNOW WHAT YOU ARE DOING!                                     |
|                                                                             |
 -----------------------------------------------------------------------------

 PAW_PBE Ti_pv 07Sep2000                :
 energy of atom  1       EATOM=-1042.3781
 kinetic energy error for atom=    0.0006 (will be added to EATOM!!)
 PAW_PBE O 08Apr2002                    :
 energy of atom  2       EATOM= -432.3788
 kinetic energy error for atom=    0.0091 (will be added to EATOM!!)
  PAW_PBE F 08Apr2002                   :
 energy of atom  3       EATOM= -659.6475
 kinetic energy error for atom=    0.0140 (will be added to EATOM!!)
 
 
 POSCAR: Ti27 O27 F54
  positions in direct lattice
  velocities in cartesian coordinates
 exchange correlation table for  LEXCH =       14
   RHO(1)=    0.500       N(1)  =     2000
   RHO(2)=  100.500       N(2)  =     4000
 


--------------------------------------------------------------------------------------------------------


 ion  position               nearest neighbor table
   1  0.008  0.988  0.001-  29 1.80  37 1.86  91 1.95  92 1.95  87 2.02  55 2.06
   2  0.001  0.989  0.344-  46 1.80  30 1.83  88 1.95  73 1.95  91 2.07  56 2.08
   3  0.995  0.013  0.658-  28 1.78  46 1.86  41 1.89  74 2.02  92 2.04  60 2.13
   4  0.988  0.334  0.989-  42 1.80  47 1.80  55 1.96  57 1.96  75 2.10  93 2.10
   5  0.988  0.334  0.334-  43 1.78  93 1.92  94 1.92  56 1.93  58 1.94  76 2.06
   6  0.989  0.323  0.675-  44 1.82  28 1.84  47 1.85  77 2.07  94 2.08  59 2.11
   7  0.990  0.673  0.010-  45 1.83  48 1.85  29 1.86  57 2.03  78 2.06  96 2.10
   8  0.000  0.676  0.320-  48 1.78  30 1.81  79 1.96  89 1.96  58 2.05  95 2.11
   9  0.001  0.667  0.666-  60 1.89  59 1.89  90 1.89  80 1.89  96 1.90  95 1.90
  10  0.323  0.001  0.994-  37 1.79  49 1.88  61 1.94  64 1.96  97 2.01  81 2.03
  11  0.345  0.010  0.335-  38 1.80  31 1.83  98 1.95  97 1.96  73 2.06  65 2.08
  12  0.335  0.999  0.679-  49 1.78  62 1.92  82 1.92  74 1.93  66 1.93  98 2.06
  13  0.333  0.346  0.000-  32 1.78  83 1.91  75 1.92  99 1.94 100 1.94  61 2.07
  14  0.333  0.323  0.344-  50 1.81  31 1.82  76 1.94  84 1.95  99 2.06  63 2.09
  15  0.333  0.345  0.658-  33 1.80  50 1.84  85 1.93  77 1.93 100 2.07  62 2.10
  16  0.334  0.661  0.987-  51 1.78  32 1.88  78 1.93  86 1.94  64 2.02 101 2.11
  17  0.342  0.667  0.333-  39 1.82 101 1.91  63 1.92  65 1.92 102 1.92  79 2.02
  18  0.347  0.659  0.674-  40 1.79  33 1.85  51 1.87  66 2.05 102 2.07  80 2.12
  19  0.666  0.012  0.010-  34 1.79  52 1.83  81 1.96  87 1.96  70 2.07 104 2.08
  20  0.658  0.007  0.323-  52 1.82  35 1.86  38 1.86  88 2.04 103 2.07  71 2.07
  21  0.680  0.999  0.667-  41 1.76  67 1.92  72 1.93 103 1.93 104 1.94  82 2.10
  22  0.676  0.327  0.990-  53 1.82  42 1.85  34 1.87  68 2.05  83 2.08 105 2.09
  23  0.672  0.321  0.333-  35 1.78  43 1.89 105 1.93 106 1.93  84 2.02  69 2.11
  24  0.676  0.343  0.676-  53 1.84  44 1.84  36 1.84  85 2.07 106 2.08  67 2.09
  25  0.676  0.666  0.987-  54 1.79  45 1.83  70 1.95  68 1.95  86 2.07 107 2.12
  26  0.658  0.667  0.334-  39 1.84 107 1.90  69 1.91 108 1.91  71 1.92  89 2.02
  27  0.655  0.655  0.674-  36 1.80  40 1.84  54 1.85 108 2.07  72 2.07  90 2.12
  28  0.008  0.166  0.666-   3 1.78   6 1.84
  29  0.999  0.833  0.001-   1 1.80   7 1.86
  30  0.998  0.832  0.329-   8 1.81   2 1.83
  31  0.339  0.167  0.332-  14 1.82  11 1.83
  32  0.331  0.499  0.995-  13 1.78  16 1.88
  33  0.335  0.500  0.673-  15 1.80  18 1.85
  34  0.666  0.166  0.003-  19 1.79  22 1.87
  35  0.660  0.168  0.331-  23 1.78  20 1.86
  36  0.665  0.501  0.659-  27 1.80  24 1.84
  37  0.168  0.004  0.002-  10 1.79   1 1.86
  38  0.499  0.988  0.339-  11 1.80  20 1.86
  39  0.499  0.673  0.337-  17 1.82  26 1.84
  40  0.499  0.675  0.652-  18 1.79  27 1.84
  41  0.832  0.001  0.672-  21 1.76   3 1.89
  42  0.834  0.343  0.009-   4 1.80  22 1.85
  43  0.835  0.334  0.336-   5 1.78  23 1.89
  44  0.833  0.331  0.655-   6 1.82  24 1.84
  45  0.833  0.658  0.997-  25 1.83   7 1.83
  46  0.005  0.996  0.499-   2 1.80   3 1.86
  47  0.998  0.337  0.834-   4 1.80   6 1.85
  48  0.002  0.658  0.168-   8 1.78   7 1.85
  49  0.338  0.997  0.833-  12 1.78  10 1.88
  50  0.333  0.336  0.499-  14 1.81  15 1.84
  51  0.339  0.677  0.834-  16 1.78  18 1.87
  52  0.670  0.993  0.167-  20 1.82  19 1.83
  53  0.668  0.336  0.834-  22 1.82  24 1.84
  54  0.660  0.665  0.833-  25 1.79  27 1.85
  55  0.995  0.166  0.002-   4 1.96   1 2.06
  56  0.005  0.168  0.332-   5 1.93   2 2.08
  57  0.016  0.501  0.998-   4 1.96   7 2.03
  58  0.003  0.500  0.343-   5 1.94   8 2.05
  59  0.003  0.504  0.660-   9 1.89   6 2.11
  60  0.002  0.830  0.672-   9 1.89   3 2.13
  61  0.340  0.168  0.006-  10 1.94  13 2.07
  62  0.329  0.164  0.665-  12 1.92  15 2.10
  63  0.332  0.503  0.329-  17 1.92  14 2.09
  64  0.333  0.834  0.010-  10 1.96  16 2.02
  65  0.322  0.832  0.335-  17 1.92  11 2.08
  66  0.327  0.834  0.657-  12 1.93  18 2.05
  67  0.659  0.164  0.664-  21 1.92  24 2.09
  68  0.653  0.501  0.009-  25 1.95  22 2.05
  69  0.665  0.503  0.337-  26 1.91  23 2.11
  70  0.668  0.834  0.998-  25 1.95  19 2.07
  71  0.680  0.831  0.337-  26 1.92  20 2.07
  72  0.671  0.833  0.664-  21 1.93  27 2.07
  73  0.168  0.001  0.324-   2 1.95  11 2.06
  74  0.168  0.992  0.672-  12 1.93   3 2.02
  75  0.168  0.324  0.004-  13 1.92   4 2.10
  76  0.166  0.336  0.329-  14 1.94   5 2.06
  77  0.167  0.337  0.668-  15 1.93   6 2.07
  78  0.168  0.671  0.997-  16 1.93   7 2.06
  79  0.168  0.662  0.337-   8 1.96  17 2.02
  80  0.165  0.669  0.664-   9 1.89  18 2.12
  81  0.498  0.996  0.002-  19 1.96  10 2.03
  82  0.499  0.995  0.657-  12 1.92  21 2.10
  83  0.497  0.333  0.003-  13 1.91  22 2.08
  84  0.499  0.346  0.329-  14 1.95  23 2.02
  85  0.498  0.324  0.669-  15 1.93  24 2.07
  86  0.499  0.672  0.014-  16 1.94  25 2.07
  87  0.834  0.000  0.990-  19 1.96   1 2.02
  88  0.834  0.005  0.338-   2 1.95  20 2.04
  89  0.832  0.658  0.334-   8 1.96  26 2.02
  90  0.838  0.669  0.668-   9 1.89  27 2.12
  91  0.992  0.006  0.167-   1 1.95   2 2.07
  92  0.004  0.998  0.833-   1 1.95   3 2.04
  93  0.007  0.338  0.169-   5 1.92   4 2.10
  94  0.012  0.334  0.498-   5 1.92   6 2.08
  95  0.999  0.669  0.502-   9 1.90   8 2.11
  96  0.005  0.661  0.829-   9 1.90   7 2.10
  97  0.337  0.997  0.167-  11 1.96  10 2.01
  98  0.324  0.000  0.502-  11 1.95  12 2.06
  99  0.332  0.337  0.167-  13 1.94  14 2.06
 100  0.332  0.322  0.835-  13 1.94  15 2.07
 101  0.328  0.668  0.169-  17 1.91  16 2.11
 102  0.323  0.664  0.497-  17 1.92  18 2.07
 103  0.670  0.997  0.500-  21 1.93  20 2.07
 104  0.656  0.997  0.832-  21 1.94  19 2.08
 105  0.661  0.342  0.169-  23 1.93  22 2.09
 106  0.654  0.331  0.498-  23 1.93  24 2.08
 107  0.668  0.670  0.170-  26 1.90  25 2.12
 108  0.678  0.672  0.498-  26 1.91  27 2.07
 

IMPORTANT INFORMATION: All symmetrisations will be switched off!
NOSYMM: (Re-)initialisation of all symmetry stuff for point group C_1.


----------------------------------------------------------------------------------------

                                     Primitive cell                                     

  volume of cell :    1556.9444

  direct lattice vectors                    reciprocal lattice vectors
    11.576408211 -0.007493833  0.008273350     0.086382659  0.000055734 -0.000061624
    -0.007484757 11.596082304 -0.004209813     0.000055802  0.086236069  0.000031110
     0.008276567 -0.004189497 11.598142763    -0.000061599  0.000031262  0.086220756

  length of vectors
    11.576413593 11.596085484 11.598146472     0.086382699  0.086236092  0.086220784

  position of ions in fractional coordinates (direct lattice)
     0.007713002  0.988364518  0.000990239
     0.001045999  0.989246562  0.344454028
     0.994879153  0.012716199  0.658369263
     0.988084597  0.333928310  0.988645450
     0.988332816  0.333672746  0.333553417
     0.988906720  0.323031745  0.675228810
     0.989980552  0.673159502  0.009723117
     0.000030391  0.675626209  0.320223979
     0.001299794  0.666928649  0.666067065
     0.322568359  0.001394642  0.994083358
     0.345279593  0.009782837  0.335191201
     0.334595826  0.999148316  0.679051678
     0.332528015  0.345739039  0.000168309
     0.332778721  0.323161650  0.344015724
     0.333156938  0.345362251  0.657619733
     0.334056102  0.661232644  0.986526726
     0.342016055  0.667444808  0.332752208
     0.346965220  0.658940844  0.673781297
     0.665838954  0.011902284  0.010496948
     0.657992284  0.007265614  0.322769777
     0.680395879  0.999133673  0.666619100
     0.676246886  0.326799959  0.990012488
     0.672051095  0.320839943  0.333050160
     0.676052817  0.342809828  0.675619592
     0.675843333  0.666391210  0.987198082
     0.657824807  0.667062138  0.334033160
     0.655479020  0.655130861  0.674124841
     0.007606729  0.165858668  0.665643370
     0.999210429  0.833268522  0.001480404
     0.998442649  0.831784484  0.329356894
     0.338949319  0.167134155  0.331944184
     0.330960370  0.499375162  0.995194545
     0.335397343  0.499783532  0.672940948
     0.665901542  0.166390364  0.002938513
     0.660282732  0.167766591  0.330962990
     0.664632678  0.500587332  0.658997742
     0.167756241  0.003751288  0.002454659
     0.498956524  0.987515363  0.338928146
     0.499344338  0.672719595  0.337002936
     0.499356050  0.674539833  0.651773792
     0.832369134  0.001158863  0.671718958
     0.834181421  0.342747118  0.009440994
     0.834627554  0.333873268  0.335577685
     0.833472634  0.330620604  0.655175673
     0.833079750  0.658369368  0.996862852
     0.004913682  0.995892898  0.499480257
     0.998391160  0.336759718  0.833596894
     0.001886127  0.658185140  0.167699275
     0.338009615  0.996866489  0.832658199
     0.332885488  0.336095250  0.499279458
     0.339261060  0.677133108  0.834060573
     0.669519199  0.993414930  0.166867570
     0.668028504  0.336010875  0.833736301
     0.659656967  0.664848481  0.833473733
     0.995273541  0.165696575  0.001587831
     0.004656780  0.167714612  0.331981006
     0.016377456  0.500678580  0.997891222
     0.003016864  0.500360016  0.342628088
     0.002877947  0.503891641  0.660031637
     0.001635148  0.829604933  0.671705101
     0.339903496  0.167687829  0.005534611
     0.329433145  0.164167505  0.665386031
     0.332337413  0.502545295  0.328700028
     0.332899358  0.833505254  0.009621010
     0.321790243  0.831635675  0.334761254
     0.327498432  0.834076488  0.656973183
     0.658970408  0.163599217  0.663874860
     0.652741760  0.501277685  0.008595432
     0.664667397  0.502728631  0.336996601
     0.667931059  0.833642198  0.998103788
     0.679691866  0.830777229  0.337236037
     0.670845799  0.833126129  0.664031621
     0.168117279  0.000794787  0.324497478
     0.167957977  0.992469193  0.671818596
     0.168131133  0.323617182  0.003520664
     0.166325489  0.336149712  0.328972340
     0.166879234  0.336757464  0.668327034
     0.167714002  0.671030833  0.997400396
     0.168063293  0.662362558  0.337180156
     0.164852897  0.669081522  0.663503215
     0.497772778  0.995535187  0.002448564
     0.499249761  0.995428487  0.657196911
     0.497236932  0.333156398  0.002697766
     0.499128541  0.346188614  0.328567898
     0.498049782  0.323996336  0.669388863
     0.499204493  0.671738642  0.014033684
     0.833639805  0.000034612  0.989572556
     0.833620753  0.005487490  0.337527638
     0.831957612  0.658268756  0.334138934
     0.837800994  0.668724403  0.668414076
     0.992019878  0.006390709  0.167463196
     0.004165754  0.998155820  0.832974089
     0.006883196  0.337793737  0.168880338
     0.011729377  0.334358701  0.497802841
     0.998628798  0.669259027  0.502335857
     0.005308909  0.661082381  0.829356105
     0.337199828  0.997069481  0.166807572
     0.323594738  0.000122889  0.501962509
     0.332361568  0.336991013  0.166841148
     0.331691236  0.321981115  0.834646011
     0.328140786  0.667787778  0.168631372
     0.323407073  0.664325675  0.497221819
     0.670471452  0.997032441  0.500184860
     0.655987756  0.996634597  0.831857414
     0.660518386  0.341725686  0.168769683
     0.654361566  0.331319175  0.498015409
     0.668162567  0.669860662  0.170221278
     0.678094096  0.671903464  0.497565097

  ion indices of the primitive-cell ions
   primitive index   ion index
                 1           1
                 2           2
                 3           3
                 4           4
                 5           5
                 6           6
                 7           7
                 8           8
                 9           9
                10          10
                11          11
                12          12
                13          13
                14          14
                15          15
                16          16
                17          17
                18          18
                19          19
                20          20
                21          21
                22          22
                23          23
                24          24
                25          25
                26          26
                27          27
                28          28
                29          29
                30          30
                31          31
                32          32
                33          33
                34          34
                35          35
                36          36
                37          37
                38          38
                39          39
                40          40
                41          41
                42          42
                43          43
                44          44
                45          45
                46          46
                47          47
                48          48
                49          49
                50          50
                51          51
                52          52
                53          53
                54          54
                55          55
                56          56
                57          57
                58          58
                59          59
                60          60
                61          61
                62          62
                63          63
                64          64
                65          65
                66          66
                67          67
                68          68
                69          69
                70          70
                71          71
                72          72
                73          73
                74          74
                75          75
                76          76
                77          77
                78          78
                79          79
                80          80
                81          81
                82          82
                83          83
                84          84
                85          85
                86          86
                87          87
                88          88
                89          89
                90          90
                91          91
                92          92
                93          93
                94          94
                95          95
                96          96
                97          97
                98          98
                99          99
               100         100
               101         101
               102         102
               103         103
               104         104
               105         105
               106         106
               107         107
               108         108

----------------------------------------------------------------------------------------

 
 
 KPOINTS: Title                                   

Automatic generation of k-mesh.
 Grid dimensions read from file:
 generate k-points for:    3    3    3

 Generating k-lattice:

  Cartesian coordinates                     Fractional coordinates (reciprocal lattice)
     0.028794220  0.000018578 -0.000020541     0.333333333 -0.000000000 -0.000000000
     0.000018601  0.028745356  0.000010370    -0.000000000  0.333333333 -0.000000000
    -0.000020533  0.000010421  0.028740252    -0.000000000  0.000000000  0.333333333

  Length of vectors
     0.028794233  0.028745364  0.028740261

  Shift w.r.t. Gamma in fractional coordinates (k-lattice)
     0.000000000  0.000000000  0.000000000

 
 Subroutine IBZKPT returns following result:
 ===========================================
 
 Found     14 irreducible k-points:
 
 Following reciprocal coordinates:
            Coordinates               Weight
  0.000000  0.000000  0.000000      1.000000
  0.333333 -0.000000  0.000000      2.000000
 -0.000000  0.333333  0.000000      2.000000
  0.333333  0.333333 -0.000000      2.000000
 -0.333333  0.333333  0.000000      2.000000
 -0.000000  0.000000  0.333333      2.000000
  0.333333  0.000000  0.333333      2.000000
 -0.333333  0.000000  0.333333      2.000000
 -0.000000  0.333333  0.333333      2.000000
  0.333333  0.333333  0.333333      2.000000
 -0.333333  0.333333  0.333333      2.000000
 -0.000000 -0.333333  0.333333      2.000000
  0.333333 -0.333333  0.333333      2.000000
 -0.333333 -0.333333  0.333333      2.000000
 
 Following cartesian coordinates:
            Coordinates               Weight
  0.000000  0.000000  0.000000      1.000000
  0.028794  0.000019 -0.000021      2.000000
  0.000019  0.028745  0.000010      2.000000
  0.028813  0.028764 -0.000010      2.000000
 -0.028776  0.028727  0.000031      2.000000
 -0.000021  0.000010  0.028740      2.000000
  0.028774  0.000029  0.028720      2.000000
 -0.028815 -0.000008  0.028761      2.000000
 -0.000002  0.028756  0.028751      2.000000
  0.028792  0.028774  0.028730      2.000000
 -0.028796  0.028737  0.028771      2.000000
 -0.000039 -0.028735  0.028730      2.000000
  0.028755 -0.028716  0.028709      2.000000
 -0.028833 -0.028754  0.028750      2.000000
 


--------------------------------------------------------------------------------------------------------




 Dimension of arrays:
   k-points           NKPTS =     14   k-points in BZ     NKDIM =     14   number of bands    NBANDS=    540
   number of dos      NEDOS =   3001   number of ions     NIONS =    108
   non local maximal  LDIM  =      6   non local SUM 2l+1 LMDIM =     18
   total plane-waves  NPLWV = ******
   max r-space proj   IRMAX =   8912   max aug-charges    IRDMAX= 199666
   dimension x,y,z NGX =   100 NGY =  100 NGZ =  100
   dimension x,y,z NGXF=   200 NGYF=  200 NGZF=  200
   support grid    NGXF=   400 NGYF=  400 NGZF=  400
   ions per type =              27  27  54
   NGX,Y,Z   is equivalent  to a cutoff of  14.36, 14.34, 14.33 a.u.
   NGXF,Y,Z  is equivalent  to a cutoff of  28.72, 28.67, 28.67 a.u.

 SYSTEM =  LTO                                     
 POSCAR =  Ti27 O27 F54                            

 Startparameter for this run:
   NWRITE =      2    write-flag & timer
   PREC   = accura    normal or accurate (medium, high low for compatibility)
   ISTART =      0    job   : 0-new  1-cont  2-samecut
   ICHARG =      2    charge: 1-file 2-atom 10-const
   ISPIN  =      2    spin polarized calculation?
   LNONCOLLINEAR =      F non collinear calculations
   LSORBIT =      F    spin-orbit coupling
   INIWAV =      1    electr: 0-lowe 1-rand  2-diag
   LASPH  =      T    aspherical Exc in radial PAW
 Electronic Relaxation 1
   ENCUT  =  700.0 eV  51.45 Ry    7.17 a.u.  24.97 25.02 25.02*2*pi/ulx,y,z
   ENINI  =  700.0     initial cutoff
   ENAUG  =  613.6 eV  augmentation charge cutoff
   NELM   =     60;   NELMIN=  2; NELMDL=  0     # of ELM steps 
   EDIFF  = 0.1E-05   stopping-criterion for ELM
   LREAL  =      T    real-space projection
   NLSPLINE    = F    spline interpolate recip. space projectors
   LCOMPAT=      F    compatible to vasp.4.4
   GGA_COMPAT  = T    GGA compatible to vasp.4.4-vasp.4.6
   LMAXPAW     = -100 max onsite density
   LMAXMIX     =    4 max onsite mixed and CHGCAR
   VOSKOWN=      0    Vosko Wilk Nusair interpolation
   ROPT   =   -0.00010  -0.00010  -0.00010
 Ionic relaxation
   EDIFFG = -.1E-01   stopping-criterion for IOM
   NSW    =    100    number of steps for IOM
   NBLOCK =      1;   KBLOCK =    100    inner block; outer block 
   IBRION =      1    ionic relax: 0-MD 1-quasi-New 2-CG
   NFREE  =      0    steps in history (QN), initial steepest desc. (CG)
   ISIF   =      3    stress and relaxation
   IWAVPR =     11    prediction:  0-non 1-charg 2-wave 3-comb
   ISYM   =      0    0-nonsym 1-usesym 2-fastsym
   LCORR  =      T    Harris-Foulkes like correction to forces

   POTIM  = 0.5000    time-step for ionic-motion
   TEIN   =    0.0    initial temperature
   TEBEG  =    0.0;   TEEND  =   0.0 temperature during run
   SMASS  =  -3.00    Nose mass-parameter (am)
   estimated Nose-frequenzy (Omega)   =  0.10E-29 period in steps = 0.13E+47 mass=  -0.306E-26a.u.
   SCALEE = 1.0000    scale energy and forces
   NPACO  =    256;   APACO  = 10.0  distance and # of slots for P.C.
   PSTRESS=    0.0 pullay stress

  Mass of Ions in am
   POMASS =  47.88 16.00 19.00
  Ionic Valenz
   ZVAL   =  10.00  6.00  7.00
  Atomic Wigner-Seitz radii
   RWIGS  =  -1.00 -1.00 -1.00
  virtual crystal weights 
   VCA    =   1.00  1.00  1.00
   NELECT =     810.0000    total number of electrons
   NUPDOWN=      -1.0000    fix difference up-down

 DOS related values:
   EMIN   =  10.00;   EMAX   =-10.00  energy-range for DOS
   EFERMI =   0.00
   ISMEAR =     0;   SIGMA  =   0.01  broadening in eV -4-tet -1-fermi 0-gaus

 Electronic relaxation 2 (details)
   IALGO  =     38    algorithm
   LDIAG  =      T    sub-space diagonalisation (order eigenvalues)
   LSUBROT=      F    optimize rotation matrix (better conditioning)
   TURBO    =      0    0=normal 1=particle mesh
   IRESTART =      0    0=no restart 2=restart with 2 vectors
   NREBOOT  =      0    no. of reboots
   NMIN     =      0    reboot dimension
   EREF     =   0.00    reference energy to select bands
   IMIX   =      4    mixing-type and parameters
     AMIX     =   0.40;   BMIX     =  1.00
     AMIX_MAG =   1.60;   BMIX_MAG =  1.00
     AMIN     =   0.10
     WC   =   100.;   INIMIX=   1;  MIXPRE=   1;  MAXMIX= -45

 Intra band minimization:
   WEIMIN = 0.0010     energy-eigenvalue tresh-hold
   EBREAK =  0.46E-09  absolut break condition
   DEPER  =   0.30     relativ break condition  

   TIME   =   0.40     timestep for ELM

  volume/ion in A,a.u.               =      14.42        97.28
  Fermi-wavevector in a.u.,A,eV,Ry     =   1.316676  2.488156 23.587533  1.733635
  Thomas-Fermi vector in A             =   2.446771
 
 Write flags
   LWAVE        =      T    write WAVECAR
   LDOWNSAMPLE  =      F    k-point downsampling of WAVECAR
   LCHARG       =      T    write CHGCAR
   LVTOT        =      F    write LOCPOT, total local potential
   LVHAR        =      F    write LOCPOT, Hartree potential only
   LELF         =      F    write electronic localiz. function (ELF)
   LORBIT       =     11    0 simple, 1 ext, 2 COOP (PROOUT), +10 PAW based schemes


 Dipole corrections
   LMONO  =      F    monopole corrections only (constant potential shift)
   LDIPOL =      F    correct potential (dipole corrections)
   IDIPOL =      0    1-x, 2-y, 3-z, 4-all directions 
   EPSILON=  1.0000000 bulk dielectric constant

 LDA+U is selected, type is set to LDAUTYPE =  2
   angular momentum for each species LDAUL =     2   -1   -1
   U (eV)           for each species LDAUU =   4.2  0.0  0.0
   J (eV)           for each species LDAUJ =   0.0  0.0  0.0
 Exchange correlation treatment:
   GGA     =    PS    GGA type
   LEXCH   =    14    internal setting for exchange type
   LIBXC   =     F    Libxc                    
   VOSKOWN =     0    Vosko Wilk Nusair interpolation
   LHFCALC =     F    Hartree Fock is set to
   LHFONE  =     F    Hartree Fock one center treatment
   AEXX    =    0.0000 exact exchange contribution

 Linear response parameters
   LEPSILON=     F    determine dielectric tensor
   LRPA    =     F    only Hartree local field effects (RPA)
   LNABLA  =     F    use nabla operator in PAW spheres
   LVEL    =     F    velocity operator in full k-point grid
   CSHIFT  =0.1000    complex shift for real part using Kramers Kronig
   OMEGAMAX=  -1.0    maximum frequency
   DEG_THRESHOLD= 0.2000000E-02 threshold for treating states as degnerate
   RTIME   =   -0.100 relaxation time in fs
  (WPLASMAI=    0.000 imaginary part of plasma frequency in eV, 0.658/RTIME)
   DFIELD  = 0.0000000 0.0000000 0.0000000 field for delta impulse in time
 
  Optional k-point grid parameters
   LKPOINTS_OPT  =     F    use optional k-point grid
   KPOINTS_OPT_MODE=     1    mode for optional k-point grid
 
 Orbital magnetization related:
   ORBITALMAG=     F  switch on orbital magnetization
   LCHIMAG   =     F  perturbation theory with respect to B field
   DQ        =  0.001000  dq finite difference perturbation B field
   LLRAUG    =     F  two centre corrections for induced B field



--------------------------------------------------------------------------------------------------------


 quasi-Newton-method for relaxation of ions
 charge density and potential will be updated during run
 spin polarized calculation
 Variant of blocked Davidson
 Davidson routine will perform the subspace rotation
 perform sub-space diagonalisation
    after iterative eigenvector-optimisation
 modified Broyden-mixing scheme, WC =      100.0
 initial mixing is a Kerker type mixing with AMIX =  0.4000 and BMIX =      1.0000
 Hartree-type preconditioning will be used
 using additional bands          135
 real space projection scheme for non local part
 use partial core corrections
 calculate Harris-corrections to forces 
   (improved forces if not selfconsistent)
 use gradient corrections 
 use of overlap-Matrix (Vanderbilt PP)
 Gauss-broadening in eV      SIGMA  =   0.01


--------------------------------------------------------------------------------------------------------


  energy-cutoff  :      700.00
  volume of cell :     1556.94
      direct lattice vectors                 reciprocal lattice vectors
    11.576408211 -0.007493833  0.008273350     0.086382659  0.000055734 -0.000061624
    -0.007484757 11.596082304 -0.004209813     0.000055802  0.086236069  0.000031110
     0.008276567 -0.004189497 11.598142763    -0.000061599  0.000031262  0.086220756

  length of vectors
    11.576413593 11.596085484 11.598146472     0.086382699  0.086236092  0.086220784


 
 k-points in units of 2pi/SCALE and weight: Title                                   
   0.00000000  0.00000000  0.00000000       0.037
   0.02879422  0.00001858 -0.00002054       0.074
   0.00001860  0.02874536  0.00001037       0.074
   0.02881282  0.02876393 -0.00001017       0.074
  -0.02877562  0.02872678  0.00003091       0.074
  -0.00002053  0.00001042  0.02874025       0.074
   0.02877369  0.00002900  0.02871971       0.074
  -0.02881475 -0.00000816  0.02876079       0.074
  -0.00000193  0.02875578  0.02875062       0.074
   0.02879229  0.02877435  0.02873008       0.074
  -0.02879615  0.02873720  0.02877116       0.074
  -0.00003913 -0.02873494  0.02872988       0.074
   0.02875509 -0.02871636  0.02870934       0.074
  -0.02883335 -0.02875351  0.02875042       0.074
 
 k-points in reciprocal lattice and weights: Title                                   
   0.00000000  0.00000000  0.00000000       0.037
   0.33333333 -0.00000000  0.00000000       0.074
  -0.00000000  0.33333333  0.00000000       0.074
   0.33333333  0.33333333 -0.00000000       0.074
  -0.33333333  0.33333333  0.00000000       0.074
  -0.00000000  0.00000000  0.33333333       0.074
   0.33333333  0.00000000  0.33333333       0.074
  -0.33333333  0.00000000  0.33333333       0.074
  -0.00000000  0.33333333  0.33333333       0.074
   0.33333333  0.33333333  0.33333333       0.074
  -0.33333333  0.33333333  0.33333333       0.074
  -0.00000000 -0.33333333  0.33333333       0.074
   0.33333333 -0.33333333  0.33333333       0.074
  -0.33333333 -0.33333333  0.33333333       0.074
 
 position of ions in fractional coordinates (direct lattice) 
   0.00771300  0.98836452  0.00099024
   0.00104600  0.98924656  0.34445403
   0.99487915  0.01271620  0.65836926
   0.98808460  0.33392831  0.98864545
   0.98833282  0.33367275  0.33355342
   0.98890672  0.32303174  0.67522881
   0.98998055  0.67315950  0.00972312
   0.00003039  0.67562621  0.32022398
   0.00129979  0.66692865  0.66606707
   0.32256836  0.00139464  0.99408336
   0.34527959  0.00978284  0.33519120
   0.33459583  0.99914832  0.67905168
   0.33252802  0.34573904  0.00016831
   0.33277872  0.32316165  0.34401572
   0.33315694  0.34536225  0.65761973
   0.33405610  0.66123264  0.98652673
   0.34201605  0.66744481  0.33275221
   0.34696522  0.65894084  0.67378130
   0.66583895  0.01190228  0.01049695
   0.65799228  0.00726561  0.32276978
   0.68039588  0.99913367  0.66661910
   0.67624689  0.32679996  0.99001249
   0.67205110  0.32083994  0.33305016
   0.67605282  0.34280983  0.67561959
   0.67584333  0.66639121  0.98719808
   0.65782481  0.66706214  0.33403316
   0.65547902  0.65513086  0.67412484
   0.00760673  0.16585867  0.66564337
   0.99921043  0.83326852  0.00148040
   0.99844265  0.83178448  0.32935689
   0.33894932  0.16713416  0.33194418
   0.33096037  0.49937516  0.99519455
   0.33539734  0.49978353  0.67294095
   0.66590154  0.16639036  0.00293851
   0.66028273  0.16776659  0.33096299
   0.66463268  0.50058733  0.65899774
   0.16775624  0.00375129  0.00245466
   0.49895652  0.98751536  0.33892815
   0.49934434  0.67271959  0.33700294
   0.49935605  0.67453983  0.65177379
   0.83236913  0.00115886  0.67171896
   0.83418142  0.34274712  0.00944099
   0.83462755  0.33387327  0.33557768
   0.83347263  0.33062060  0.65517567
   0.83307975  0.65836937  0.99686285
   0.00491368  0.99589290  0.49948026
   0.99839116  0.33675972  0.83359689
   0.00188613  0.65818514  0.16769928
   0.33800962  0.99686649  0.83265820
   0.33288549  0.33609525  0.49927946
   0.33926106  0.67713311  0.83406057
   0.66951920  0.99341493  0.16686757
   0.66802850  0.33601088  0.83373630
   0.65965697  0.66484848  0.83347373
   0.99527354  0.16569657  0.00158783
   0.00465678  0.16771461  0.33198101
   0.01637746  0.50067858  0.99789122
   0.00301686  0.50036002  0.34262809
   0.00287795  0.50389164  0.66003164
   0.00163515  0.82960493  0.67170510
   0.33990350  0.16768783  0.00553461
   0.32943314  0.16416750  0.66538603
   0.33233741  0.50254530  0.32870003
   0.33289936  0.83350525  0.00962101
   0.32179024  0.83163567  0.33476125
   0.32749843  0.83407649  0.65697318
   0.65897041  0.16359922  0.66387486
   0.65274176  0.50127768  0.00859543
   0.66466740  0.50272863  0.33699660
   0.66793106  0.83364220  0.99810379
   0.67969187  0.83077723  0.33723604
   0.67084580  0.83312613  0.66403162
   0.16811728  0.00079479  0.32449748
   0.16795798  0.99246919  0.67181860
   0.16813113  0.32361718  0.00352066
   0.16632549  0.33614971  0.32897234
   0.16687923  0.33675746  0.66832703
   0.16771400  0.67103083  0.99740040
   0.16806329  0.66236256  0.33718016
   0.16485290  0.66908152  0.66350322
   0.49777278  0.99553519  0.00244856
   0.49924976  0.99542849  0.65719691
   0.49723693  0.33315640  0.00269777
   0.49912854  0.34618861  0.32856790
   0.49804978  0.32399634  0.66938886
   0.49920449  0.67173864  0.01403368
   0.83363980  0.00003461  0.98957256
   0.83362075  0.00548749  0.33752764
   0.83195761  0.65826876  0.33413893
   0.83780099  0.66872440  0.66841408
   0.99201988  0.00639071  0.16746320
   0.00416575  0.99815582  0.83297409
   0.00688320  0.33779374  0.16888034
   0.01172938  0.33435870  0.49780284
   0.99862880  0.66925903  0.50233586
   0.00530891  0.66108238  0.82935611
   0.33719983  0.99706948  0.16680757
   0.32359474  0.00012289  0.50196251
   0.33236157  0.33699101  0.16684115
   0.33169124  0.32198111  0.83464601
   0.32814079  0.66778778  0.16863137
   0.32340707  0.66432567  0.49722182
   0.67047145  0.99703244  0.50018486
   0.65598776  0.99663460  0.83185741
   0.66051839  0.34172569  0.16876968
   0.65436157  0.33131918  0.49801541
   0.66816257  0.66986066  0.17022128
   0.67809410  0.67190346  0.49756510
 
 position of ions in cartesian coordinates  (Angst):
   0.08189939 11.46109435  0.00738792
   0.00755554 11.46993362  3.99087110
  11.52248105  0.13724440  7.64403816
  11.44415385  3.86071370 11.47322007
  11.44160734  3.86049281  3.87537228
  11.45115863  3.73566313  7.83822180
  11.45546103  7.79855350  0.11812668
  -0.00205473  7.83327532  3.71115942
   0.01556789  7.73095928  7.72234402
   3.74240016  0.00959040 11.53218355
   3.99979853  0.10945084  3.89041083
   3.87155971 11.58085381  7.87430031
   3.84689367  4.00672573  0.00324769
   3.85281080  3.74347405  3.99133622
   3.85961859  3.99959736  7.62846996
   3.87038569  7.66107176 11.44185790
   3.95707585  7.73578785  3.85932742
   4.01725560  7.63570936  7.81470822
   7.70802133  0.13298620  0.12720371
   7.61980433  0.07796953  3.74894316
   7.87457949 11.57814473  7.73296648
   7.83425789  3.78038389 11.48652524
   7.78029292  3.71405483  3.86697274
   7.82928934  3.96735425  7.84008254
   7.82702114  7.71832679 11.45245040
   7.61302034  7.72897840  3.87679849
   7.58876866  7.58921509  7.82126117
   0.09232643  1.92046505  7.71959153
  11.56104325  9.65515624  0.02192885
  11.55487991  9.63657934  3.82468708
   3.92531208  1.93417071  3.85203667
   3.83583144  5.78414595 11.54304429
   3.88452544  5.79019828  7.80553604
   7.70752701  1.92447388  0.03889005
   7.64518599  1.93910059  3.84331249
   7.69576666  5.79711038  7.64654126
   1.94200696  0.04223282  0.02984160
   5.77153825 11.44615039  3.93090781
   5.77836798  7.79575792  3.90990739
   5.78109516  7.81554673  7.56065715
   9.64139574  0.00438647  7.79757397
   9.65433742  3.96823302  0.11495656
   9.66226774  3.86396144  3.89757751
   9.65156744  3.82491298  7.60432475
   9.64739412  7.62408606 11.56587842
   0.05356276 11.54632662  5.78889145
  11.56216238  3.89411928  9.67501812
   0.01829619  7.63165234  1.94224490
   3.91236753 11.55372445  9.65588851
   3.85523503  3.89280186  5.79205362
   3.92925950  7.84605459  9.67350982
   7.74457318 11.51400493  1.93671097
   7.73775617  3.88791074  9.67390493
   7.63838040  7.70120251  9.66940603
  11.52046574  1.91396605  0.02595259
   0.05540115  1.94340671  3.84969558
   0.19410377  5.80160663 11.57171258
   0.03401516  5.80075788  3.97176801
   0.03500758  5.84038217  7.65304368
   0.01827917  9.61734072  7.78705270
   3.93365233  1.94195150  0.06629742
   3.81793092  1.89844355  7.71927658
   3.84623263  5.82368904  3.81294377
   3.84761990  9.66286053  0.11083114
   3.72172130  9.63990181  3.88177006
   3.79045016  9.66681300  7.61886697
   7.63278055  1.88939048  7.70447858
   7.55272427  5.80792974  0.10298112
   7.69348748  5.82328983  3.91191732
   7.73426386  9.65779663 11.57816677
   7.86496349  9.62725478  3.91343762
   7.76524497  9.65319000  7.70357637
   1.94887403  0.00659709  3.76495563
   1.94248206 11.50468122  7.78905945
   1.94396157  3.75141678  0.04086180
   1.92565852  3.89539509  3.81542910
   1.93487304  3.90101675  7.75131531
   1.94475829  7.77589334 11.56655482
   1.94340236  7.67813868  3.90926561
   1.90888805  7.75470927  7.69395219
   5.75498980 11.54056748  0.02832603
   5.77750782 11.53657605  7.62220349
   5.75374644  3.85957150  0.03400036
   5.77824402  4.00931474  3.81344947
   5.76874279  3.75055148  7.76642418
   5.77408335  7.78573683  0.16406687
   9.65874468 -0.00999160 11.48410063
   9.65308663  0.05597230  3.92156747
   9.62891948  7.62570425  3.87950295
   9.69925324  7.74550456  7.75647809
  11.48536525  0.06597156  1.95044247
   0.04764768 11.57117608  9.65678481
   0.07855214  3.91632487  1.95733317
   0.13740156  3.87507758  5.77227787
  11.55968299  7.75119467  5.83160753
   0.06337427  7.66245133  9.61625140
   3.89748062 11.55887401  1.93325033
   3.75021838 -0.00310290  5.82450954
   3.84641176  3.90458588  1.93637852
   3.84429120  3.72773712  9.68173231
   3.79508915  7.74055652  1.95571429
   3.74303527  7.69906853  5.76672862
   7.75832848 11.55455033  5.80256514
   7.59340740 11.54865589  9.64923261
   7.64526956  3.95702230  1.96144098
   7.57679862  3.83501432  5.78007278
   7.73131773  7.76203913  1.97695864
   7.84898315  7.78428180  5.77361255
 


--------------------------------------------------------------------------------------------------------


 k-point   1 :   0.0000 0.0000 0.0000  plane waves:   65293
 k-point   2 :   0.3333-0.0000 0.0000  plane waves:   65420
 k-point   3 :  -0.0000 0.3333 0.0000  plane waves:   65431
 k-point   4 :   0.3333 0.3333-0.0000  plane waves:   65483
 k-point   5 :  -0.3333 0.3333 0.0000  plane waves:   65456
 k-point   6 :  -0.0000 0.0000 0.3333  plane waves:   65430
 k-point   7 :   0.3333 0.0000 0.3333  plane waves:   65454
 k-point   8 :  -0.3333 0.0000 0.3333  plane waves:   65481
 k-point   9 :  -0.0000 0.3333 0.3333  plane waves:   65483
 k-point  10 :   0.3333 0.3333 0.3333  plane waves:   65516
 k-point  11 :  -0.3333 0.3333 0.3333  plane waves:   65511
 k-point  12 :  -0.0000-0.3333 0.3333  plane waves:   65481
 k-point  13 :   0.3333-0.3333 0.3333  plane waves:   65506
 k-point  14 :  -0.3333-0.3333 0.3333  plane waves:   65501

 maximum and minimum number of plane-waves per node :      8235     8064

 maximum number of plane-waves:     65516
 maximum index in each direction: 
   IXMAX=   25   IYMAX=   25   IZMAX=   25
   IXMIN=  -25   IYMIN=  -25   IZMIN=  -25


 real space projection operators:
  total allocation   :      54067.38 KBytes
  max/ min on nodes  :       7372.83       6139.38


 parallel 3D FFT for wavefunctions:
    minimum data exchange during FFTs selected (reduces bandwidth)
 parallel 3D FFT for charge:
    minimum data exchange during FFTs selected (reduces bandwidth)


 total amount of memory used by VASP MPI-rank0   298194. kBytes
=======================================================================

   base      :      30000. kBytes
   nonlr-proj:      25311. kBytes
   fftplans  :      18873. kBytes
   grid      :      21088. kBytes
   one-center:        435. kBytes
   wavefun   :     202487. kBytes
 
     INWAV:  cpu time      0.0001: real time      0.0002
 Broyden mixing: mesh for mixing (old mesh)
   NGX = 49   NGY = 51   NGZ = 51
  (NGX  =200   NGY  =200   NGZ  =200)
  gives a total of 127449 points

 initial charge density was supplied:
 charge density of overlapping atoms calculated
 number of electron     810.0000000 magnetization     108.0000000
 keeping initial charge density in first step


--------------------------------------------------------------------------------------------------------


 Maximum index for non-local projection operator         1371
 Maximum index for augmentation-charges         4046 (set IRDMAX)


--------------------------------------------------------------------------------------------------------


 First call to EWALD:  gamma=   0.153
 Maximum number of real-space cells 3x 3x 3
 Maximum number of reciprocal cells 3x 3x 3

    FEWALD:  cpu time      0.0069: real time      0.0069


--------------------------------------- Iteration      1(   1)  ---------------------------------------


    POTLOK:  cpu time      0.1685: real time      0.1775
    SETDIJ:  cpu time      0.9075: real time      0.9103
     EDDAV:  cpu time     87.6419: real time     87.9036
       DOS:  cpu time      0.0112: real time      0.0113
    --------------------------------------------
      LOOP:  cpu time     88.7291: real time     89.0027

 eigenvalue-minimisations  : 30240
 total energy-change (2. order) : 0.1320361E+05  (-0.4644490E+05)
 number of electron     810.0000000 magnetization     108.0000000
 augmentation part      810.0000000 magnetization     108.0000000

 Free energy of the ion-electron system (eV)
  ---------------------------------------------------
  alpha Z        PSCENC =      2561.81961121
  Ewald energy   TEWEN  =    -43286.94097318
  -Hartree energ DENC   =    -27724.56729959
  -exchange      EXHF   =         0.00000000
  -V(xc)+E(xc)   XCENC  =      3762.42011592
  PAW double counting   =     55010.87535266   -55252.78449702
  entropy T*S    EENTRO =        -0.00197092
  eigenvalues    EBANDS =      2862.34287384
  atomic energy  EATOM  =     75270.44210491
  Solvation  Ediel_sol  =         0.00000000
  ---------------------------------------------------
  free energy    TOTEN  =     13203.60531782 eV

  energy without entropy =    13203.60728873  energy(sigma->0) =    13203.60630328


--------------------------------------------------------------------------------------------------------




--------------------------------------- Iteration      1(   2)  ---------------------------------------


     EDDAV:  cpu time     87.6259: real time     87.8951
       DOS:  cpu time      0.0073: real time      0.0073
    --------------------------------------------
      LOOP:  cpu time     87.6332: real time     87.9025

 eigenvalue-minimisations  : 30290
 total energy-change (2. order) :-0.1155690E+05  (-0.1081560E+05)
 number of electron     810.0000000 magnetization     108.0000000
 augmentation part      810.0000000 magnetization     108.0000000

 Free energy of the ion-electron system (eV)
  ---------------------------------------------------
  alpha Z        PSCENC =      2561.81961121
  Ewald energy   TEWEN  =    -43286.94097318
  -Hartree energ DENC   =    -27724.56729959
  -exchange      EXHF   =         0.00000000
  -V(xc)+E(xc)   XCENC  =      3762.42011592
  PAW double counting   =     55010.87535266   -55252.78449702
  entropy T*S    EENTRO =        -0.00186634
  eigenvalues    EBANDS =     -8694.56071887
  atomic energy  EATOM  =     75270.44210491
  Solvation  Ediel_sol  =         0.00000000
  ---------------------------------------------------
  free energy    TOTEN  =      1646.70182969 eV

  energy without entropy =     1646.70369603  energy(sigma->0) =     1646.70276286


--------------------------------------------------------------------------------------------------------




--------------------------------------- Iteration      1(   3)  ---------------------------------------


     EDDAV:  cpu time     93.1923: real time     93.5496
       DOS:  cpu time      0.0095: real time      0.0095
    --------------------------------------------
      LOOP:  cpu time     93.2018: real time     93.5591

 eigenvalue-minimisations  : 32400
 total energy-change (2. order) :-0.2416853E+04  (-0.2269615E+04)
 number of electron     810.0000000 magnetization     108.0000000
 augmentation part      810.0000000 magnetization     108.0000000

 Free energy of the ion-electron system (eV)
  ---------------------------------------------------
  alpha Z        PSCENC =      2561.81961121
  Ewald energy   TEWEN  =    -43286.94097318
  -Hartree energ DENC   =    -27724.56729959
  -exchange      EXHF   =         0.00000000
  -V(xc)+E(xc)   XCENC  =      3762.42011592
  PAW double counting   =     55010.87535266   -55252.78449702
  entropy T*S    EENTRO =        -0.00000000
  eigenvalues    EBANDS =    -11111.41569053
  atomic energy  EATOM  =     75270.44210491
  Solvation  Ediel_sol  =         0.00000000
  ---------------------------------------------------
  free energy    TOTEN  =      -770.15127564 eV

  energy without entropy =     -770.15127564  energy(sigma->0) =     -770.15127564


--------------------------------------------------------------------------------------------------------




--------------------------------------- Iteration      1(   4)  ---------------------------------------


     EDDAV:  cpu time    103.6313: real time    103.9235
       DOS:  cpu time      0.0058: real time      0.0058
    --------------------------------------------
      LOOP:  cpu time    103.6371: real time    103.9293

 eigenvalue-minimisations  : 37370
 total energy-change (2. order) :-0.1533664E+03  (-0.1516872E+03)
 number of electron     810.0000000 magnetization     108.0000000
 augmentation part      810.0000000 magnetization     108.0000000

 Free energy of the ion-electron system (eV)
  ---------------------------------------------------
  alpha Z        PSCENC =      2561.81961121
  Ewald energy   TEWEN  =    -43286.94097318
  -Hartree energ DENC   =    -27724.56729959
  -exchange      EXHF   =         0.00000000
  -V(xc)+E(xc)   XCENC  =      3762.42011592
  PAW double counting   =     55010.87535266   -55252.78449702
  entropy T*S    EENTRO =        -0.00000000
  eigenvalues    EBANDS =    -11264.78211798
  atomic energy  EATOM  =     75270.44210491
  Solvation  Ediel_sol  =         0.00000000
  ---------------------------------------------------
  free energy    TOTEN  =      -923.51770308 eV

  energy without entropy =     -923.51770308  energy(sigma->0) =     -923.51770308


--------------------------------------------------------------------------------------------------------




--------------------------------------- Iteration      1(   5)  ---------------------------------------


     EDDAV:  cpu time    105.8502: real time    106.1258
       DOS:  cpu time      0.0065: real time      0.0065
    CHARGE:  cpu time      3.9790: real time      3.9891
    MIXING:  cpu time      0.0051: real time      0.0054
    --------------------------------------------
      LOOP:  cpu time    109.8409: real time    110.1267

 eigenvalue-minimisations  : 38300
 total energy-change (2. order) :-0.4914942E+01  (-0.4893723E+01)
 number of electron     810.0000010 magnetization      68.7927375
 augmentation part      205.6117838 magnetization      70.5365907

 Broyden mixing:
  rms(total) = 0.10946E+02    rms(broyden)= 0.10946E+02
  rms(prec ) = 0.13038E+02
  weight for this iteration     100.00

 Free energy of the ion-electron system (eV)
  ---------------------------------------------------
  alpha Z        PSCENC =      2561.81961121
  Ewald energy   TEWEN  =    -43286.94097318
  -Hartree energ DENC   =    -27724.56729959
  -exchange      EXHF   =         0.00000000
  -V(xc)+E(xc)   XCENC  =      3762.42011592
  PAW double counting   =     55010.87535266   -55252.78449702
  entropy T*S    EENTRO =        -0.00000000
  eigenvalues    EBANDS =    -11269.69706036
  atomic energy  EATOM  =     75270.44210491
  Solvation  Ediel_sol  =         0.00000000
  ---------------------------------------------------
  free energy    TOTEN  =      -928.43264546 eV

  energy without entropy =     -928.43264546  energy(sigma->0) =     -928.43264546


--------------------------------------------------------------------------------------------------------




--------------------------------------- Iteration      1(   6)  ---------------------------------------


    POTLOK:  cpu time      0.1623: real time      0.2270
    SETDIJ:  cpu time      0.9146: real time      0.9168
     EDDAV:  cpu time    109.5962: real time    109.8597
       DOS:  cpu time      0.0045: real time      0.0046
    CHARGE:  cpu time      3.9786: real time      3.9881
    MIXING:  cpu time      0.0050: real time      0.0057
    --------------------------------------------
      LOOP:  cpu time    114.6612: real time    115.0019

 eigenvalue-minimisations  : 40270
 total energy-change (2. order) : 0.4222848E+03  (-0.1148517E+03)
 number of electron     810.0000011 magnetization      47.0812376
 augmentation part      211.6938226 magnetization      41.6683683

 Broyden mixing:
  rms(total) = 0.32754E+01    rms(broyden)= 0.32748E+01
  rms(prec ) = 0.35734E+01
  weight for this iteration     100.00

 eigenvalues of (default mixing * dielectric matrix)
  average eigenvalue GAMMA=   0.8702
  0.8702

 Free energy of the ion-electron system (eV)
  ---------------------------------------------------
  alpha Z        PSCENC =      2561.81961121
  Ewald energy   TEWEN  =    -43286.94097318
  -Hartree energ DENC   =    -28131.11333411
  -exchange      EXHF   =         0.00000000
  -V(xc)+E(xc)   XCENC  =      3909.32118843
  PAW double counting   =     57655.43054383   -58028.42866148
  entropy T*S    EENTRO =        -0.00000000
  eigenvalues    EBANDS =    -10456.67830807
  atomic energy  EATOM  =     75270.44210491
  Solvation  Ediel_sol  =         0.00000000
  ---------------------------------------------------
  free energy    TOTEN  =      -506.14782846 eV

  energy without entropy =     -506.14782846  energy(sigma->0) =     -506.14782846


--------------------------------------------------------------------------------------------------------




--------------------------------------- Iteration      1(   7)  ---------------------------------------


    POTLOK:  cpu time      0.2044: real time      0.4141
    SETDIJ:  cpu time      0.9055: real time      0.9076
     EDDAV:  cpu time    106.3689: real time    106.6238
       DOS:  cpu time      0.0052: real time      0.0052
    CHARGE:  cpu time      4.0166: real time      4.0262
    MIXING:  cpu time      0.0040: real time      0.0040
    --------------------------------------------
      LOOP:  cpu time    111.5045: real time    111.9809

 eigenvalue-minimisations  : 38520
 total energy-change (2. order) :-0.9505784E+02  (-0.1923356E+02)
 number of electron     810.0000010 magnetization      26.6424031
 augmentation part      207.5443824 magnetization      22.7219398

 Broyden mixing:
  rms(total) = 0.19107E+01    rms(broyden)= 0.19107E+01
  rms(prec ) = 0.21232E+01
  weight for this iteration     100.00

 eigenvalues of (default mixing * dielectric matrix)
  average eigenvalue GAMMA=   0.9733
  1.0884  0.8583

 Free energy of the ion-electron system (eV)
  ---------------------------------------------------
  alpha Z        PSCENC =      2561.81961121
  Ewald energy   TEWEN  =    -43286.94097318
  -Hartree energ DENC   =    -28155.84268212
  -exchange      EXHF   =         0.00000000
  -V(xc)+E(xc)   XCENC  =      3859.81413460
  PAW double counting   =     59239.69104373   -59625.10560292
  entropy T*S    EENTRO =        -0.00000000
  eigenvalues    EBANDS =    -10465.08330443
  atomic energy  EATOM  =     75270.44210491
  Solvation  Ediel_sol  =         0.00000000
  ---------------------------------------------------
  free energy    TOTEN  =      -601.20566820 eV

  energy without entropy =     -601.20566820  energy(sigma->0) =     -601.20566820


--------------------------------------------------------------------------------------------------------




--------------------------------------- Iteration      1(   8)  ---------------------------------------


    POTLOK:  cpu time      0.1989: real time      0.3745
    SETDIJ:  cpu time      0.8901: real time      0.8922
     EDDAV:  cpu time     98.5326: real time     98.7696
       DOS:  cpu time      0.0052: real time      0.0052
    CHARGE:  cpu time      3.9535: real time      3.9634
    MIXING:  cpu time      0.0045: real time      0.0045
    --------------------------------------------
      LOOP:  cpu time    103.5848: real time    104.0094

 eigenvalue-minimisations  : 35180
 total energy-change (2. order) :-0.5513720E+02  (-0.4238537E+01)
 number of electron     810.0000010 magnetization       9.8244301
 augmentation part      209.5777335 magnetization       7.0504703

 Broyden mixing:
  rms(total) = 0.12328E+01    rms(broyden)= 0.12327E+01
  rms(prec ) = 0.13228E+01
  weight for this iteration     100.00

 eigenvalues of (default mixing * dielectric matrix)
  average eigenvalue GAMMA=   1.1736
  1.4158  1.4158  0.6891

 Free energy of the ion-electron system (eV)
  ---------------------------------------------------
  alpha Z        PSCENC =      2561.81961121
  Ewald energy   TEWEN  =    -43286.94097318
  -Hartree energ DENC   =    -28000.84318350
  -exchange      EXHF   =         0.00000000
  -V(xc)+E(xc)   XCENC  =      3823.61961074
  PAW double counting   =     60258.91963338   -60662.59251782
  entropy T*S    EENTRO =        -0.00000000
  eigenvalues    EBANDS =    -10620.76714922
  atomic energy  EATOM  =     75270.44210491
  Solvation  Ediel_sol  =         0.00000000
  ---------------------------------------------------
  free energy    TOTEN  =      -656.34286348 eV

  energy without entropy =     -656.34286348  energy(sigma->0) =     -656.34286348


--------------------------------------------------------------------------------------------------------




--------------------------------------- Iteration      1(   9)  ---------------------------------------


    POTLOK:  cpu time      0.1933: real time      0.3681
    SETDIJ:  cpu time      0.8835: real time      0.8856
     EDDAV:  cpu time     99.4841: real time     99.7223
       DOS:  cpu time      0.0053: real time      0.0053
    CHARGE:  cpu time      4.0972: real time      4.1070
    MIXING:  cpu time      0.0055: real time      0.0056
    --------------------------------------------
      LOOP:  cpu time    104.6689: real time    105.0939

 eigenvalue-minimisations  : 35150
 total energy-change (2. order) :-0.5398194E+02  (-0.7903674E+01)
 number of electron     810.0000010 magnetization       4.6218066
 augmentation part      208.6744489 magnetization       3.6768492

 Broyden mixing:
  rms(total) = 0.48741E+00    rms(broyden)= 0.48730E+00
  rms(prec ) = 0.59061E+00
  weight for this iteration     100.00

 eigenvalues of (default mixing * dielectric matrix)
  average eigenvalue GAMMA=   1.1654
  1.8658  1.4393  0.7600  0.5966

 Free energy of the ion-electron system (eV)
  ---------------------------------------------------
  alpha Z        PSCENC =      2561.81961121
  Ewald energy   TEWEN  =    -43286.94097318
  -Hartree energ DENC   =    -27857.43778739
  -exchange      EXHF   =         0.00000000
  -V(xc)+E(xc)   XCENC  =      3788.35316908
  PAW double counting   =     60925.52474180   -61335.07459122
  entropy T*S    EENTRO =        -0.00000000
  eigenvalues    EBANDS =    -10777.01107390
  atomic energy  EATOM  =     75270.44210491
  Solvation  Ediel_sol  =         0.00000000
  ---------------------------------------------------
  free energy    TOTEN  =      -710.32479870 eV

  energy without entropy =     -710.32479870  energy(sigma->0) =     -710.32479870


--------------------------------------------------------------------------------------------------------




--------------------------------------- Iteration      1(  10)  ---------------------------------------


    POTLOK:  cpu time      0.1891: real time      0.3384
    SETDIJ:  cpu time      0.9104: real time      0.9126
     EDDAV:  cpu time    103.1362: real time    103.3853
       DOS:  cpu time      0.0052: real time      0.0052
    CHARGE:  cpu time      3.9347: real time      3.9441
    MIXING:  cpu time      0.0043: real time      0.0043
    --------------------------------------------
      LOOP:  cpu time    108.1800: real time    108.5900

 eigenvalue-minimisations  : 37410
 total energy-change (2. order) :-0.8494284E+01  (-0.1336307E+01)
 number of electron     810.0000010 magnetization       1.9982599
 augmentation part      209.1018217 magnetization       1.6667548

 Broyden mixing:
  rms(total) = 0.19641E+00    rms(broyden)= 0.19635E+00
  rms(prec ) = 0.22240E+00
  weight for this iteration     100.00

 eigenvalues of (default mixing * dielectric matrix)
  average eigenvalue GAMMA=   1.2186
  2.1705  1.6061  0.9550  0.7677  0.5936

 Free energy of the ion-electron system (eV)
  ---------------------------------------------------
  alpha Z        PSCENC =      2561.81961121
  Ewald energy   TEWEN  =    -43286.94097318
  -Hartree energ DENC   =    -27817.29047893
  -exchange      EXHF   =         0.00000000
  -V(xc)+E(xc)   XCENC  =      3783.54740415
  PAW double counting   =     61030.69527798   -61445.11916288
  entropy T*S    EENTRO =        -0.00000000
  eigenvalues    EBANDS =    -10815.97286580
  atomic energy  EATOM  =     75270.44210491
  Solvation  Ediel_sol  =         0.00000000
  ---------------------------------------------------
  free energy    TOTEN  =      -718.81908254 eV

  energy without entropy =     -718.81908254  energy(sigma->0) =     -718.81908254


--------------------------------------------------------------------------------------------------------




--------------------------------------- Iteration      1(  11)  ---------------------------------------


    POTLOK:  cpu time      0.2048: real time      0.3512
    SETDIJ:  cpu time      0.8937: real time      0.8958
     EDDAV:  cpu time    100.9864: real time    101.2308
       DOS:  cpu time      0.0052: real time      0.0052
    CHARGE:  cpu time      4.0441: real time      4.0539
    MIXING:  cpu time      0.0047: real time      0.0047
    --------------------------------------------
      LOOP:  cpu time    106.1389: real time    106.5416

 eigenvalue-minimisations  : 36040
 total energy-change (2. order) :-0.2130646E+01  (-0.3595911E+00)
 number of electron     810.0000010 magnetization       0.5490667
 augmentation part      209.0768119 magnetization       0.4309116

 Broyden mixing:
  rms(total) = 0.98104E-01    rms(broyden)= 0.98076E-01
  rms(prec ) = 0.12001E+00
  weight for this iteration     100.00

 eigenvalues of (default mixing * dielectric matrix)
  average eigenvalue GAMMA=   1.2430
  2.5527  1.3924  1.3924  0.7952  0.7221  0.6031

 Free energy of the ion-electron system (eV)
  ---------------------------------------------------
  alpha Z        PSCENC =      2561.81961121
  Ewald energy   TEWEN  =    -43286.94097318
  -Hartree energ DENC   =    -27780.91487406
  -exchange      EXHF   =         0.00000000
  -V(xc)+E(xc)   XCENC  =      3781.23722014
  PAW double counting   =     60971.84572299   -61387.81041039
  entropy T*S    EENTRO =        -0.00000000
  eigenvalues    EBANDS =    -10850.62813061
  atomic energy  EATOM  =     75270.44210491
  Solvation  Ediel_sol  =         0.00000000
  ---------------------------------------------------
  free energy    TOTEN  =      -720.94972900 eV

  energy without entropy =     -720.94972900  energy(sigma->0) =     -720.94972900


--------------------------------------------------------------------------------------------------------




--------------------------------------- Iteration      1(  12)  ---------------------------------------


    POTLOK:  cpu time      0.1814: real time      0.3665
    SETDIJ:  cpu time      0.8873: real time      0.8894
     EDDAV:  cpu time     95.5430: real time     95.7728
       DOS:  cpu time      0.0039: real time      0.0039
    CHARGE:  cpu time      4.0856: real time      4.0954
    MIXING:  cpu time      0.0054: real time      0.0055
    --------------------------------------------
      LOOP:  cpu time    100.7065: real time    101.1334

 eigenvalue-minimisations  : 33670
 total energy-change (2. order) :-0.1929295E-01  (-0.2485143E-01)
 number of electron     810.0000010 magnetization       0.2762078
 augmentation part      209.1424278 magnetization       0.2371473

 Broyden mixing:
  rms(total) = 0.46406E-01    rms(broyden)= 0.46398E-01
  rms(prec ) = 0.57568E-01
  weight for this iteration     100.00

 eigenvalues of (default mixing * dielectric matrix)
  average eigenvalue GAMMA=   1.2194
  2.5379  1.5213  1.5213  0.8229  0.8229  0.7367  0.5730

 Free energy of the ion-electron system (eV)
  ---------------------------------------------------
  alpha Z        PSCENC =      2561.81961121
  Ewald energy   TEWEN  =    -43286.94097318
  -Hartree energ DENC   =    -27752.15448327
  -exchange      EXHF   =         0.00000000
  -V(xc)+E(xc)   XCENC  =      3780.14723901
  PAW double counting   =     60896.36926377   -61312.83393664
  entropy T*S    EENTRO =        -0.00000000
  eigenvalues    EBANDS =    -10877.81784775
  atomic energy  EATOM  =     75270.44210491
  Solvation  Ediel_sol  =         0.00000000
  ---------------------------------------------------
  free energy    TOTEN  =      -720.96902195 eV

  energy without entropy =     -720.96902195  energy(sigma->0) =     -720.96902195


--------------------------------------------------------------------------------------------------------




--------------------------------------- Iteration      1(  13)  ---------------------------------------


    POTLOK:  cpu time      0.1797: real time      0.3955
    SETDIJ:  cpu time      0.9020: real time      0.9042
     EDDAV:  cpu time     95.5604: real time     95.7906
       DOS:  cpu time      0.0046: real time      0.0046
    CHARGE:  cpu time      4.0238: real time      4.0335
    MIXING:  cpu time      0.0052: real time      0.0052
    --------------------------------------------
      LOOP:  cpu time    100.6756: real time    101.1336

 eigenvalue-minimisations  : 33610
 total energy-change (2. order) :-0.1243232E-02  (-0.5336179E-02)
 number of electron     810.0000010 magnetization       0.0169960
 augmentation part      209.1237315 magnetization      -0.0022148

 Broyden mixing:
  rms(total) = 0.23622E-01    rms(broyden)= 0.23620E-01
  rms(prec ) = 0.29013E-01
  weight for this iteration     100.00

 eigenvalues of (default mixing * dielectric matrix)
  average eigenvalue GAMMA=   1.2704
  2.6474  2.3851  1.1399  1.0275  0.8657  0.8657  0.5802  0.6514

 Free energy of the ion-electron system (eV)
  ---------------------------------------------------
  alpha Z        PSCENC =      2561.81961121
  Ewald energy   TEWEN  =    -43286.94097318
  -Hartree energ DENC   =    -27742.80820203
  -exchange      EXHF   =         0.00000000
  -V(xc)+E(xc)   XCENC  =      3779.80212461
  PAW double counting   =     60866.31596641   -61282.39500278
  entropy T*S    EENTRO =        -0.00000000
  eigenvalues    EBANDS =    -10887.20589433
  atomic energy  EATOM  =     75270.44210491
  Solvation  Ediel_sol  =         0.00000000
  ---------------------------------------------------
  free energy    TOTEN  =      -720.97026518 eV

  energy without entropy =     -720.97026518  energy(sigma->0) =     -720.97026518


--------------------------------------------------------------------------------------------------------




--------------------------------------- Iteration      1(  14)  ---------------------------------------


    POTLOK:  cpu time      0.1823: real time      0.3011
    SETDIJ:  cpu time      0.8917: real time      0.8938
     EDDAV:  cpu time     94.5898: real time     94.8209
       DOS:  cpu time      0.0037: real time      0.0037
    CHARGE:  cpu time      4.0783: real time      4.0882
    MIXING:  cpu time      0.0051: real time      0.0051
    --------------------------------------------
      LOOP:  cpu time     99.7509: real time    100.1128

 eigenvalue-minimisations  : 33320
 total energy-change (2. order) : 0.5970191E-02  (-0.1451442E-02)
 number of electron     810.0000010 magnetization       0.0036046
 augmentation part      209.1294004 magnetization      -0.0012978

 Broyden mixing:
  rms(total) = 0.77629E-02    rms(broyden)= 0.77610E-02
  rms(prec ) = 0.98863E-02
  weight for this iteration     100.00

[...]
      3.85962      3.99960      7.62847        -0.002037      0.002393      0.000358
      3.87039      7.66107     11.44186         0.003721      0.001821     -0.001640
      3.95708      7.73579      3.85933        -0.000341      0.000833      0.000798
      4.01726      7.63571      7.81471         0.003134      0.000557     -0.000396
      7.70802      0.13299      0.12720        -0.000145      0.001070      0.001354
      7.61980      0.07797      3.74894        -0.001024     -0.000677     -0.000071
      7.87458     11.57814      7.73297         0.004226     -0.003142      0.002360
      7.83426      3.78038     11.48653         0.001858      0.001741      0.003924
      7.78029      3.71405      3.86697        -0.001850      0.000545     -0.000538
      7.82929      3.96735      7.84008         0.000956     -0.000282      0.001143
      7.82702      7.71833     11.45245        -0.000993      0.000941     -0.001712
      7.61302      7.72898      3.87680         0.000283      0.001744     -0.000093
      7.58877      7.58922      7.82126        -0.003378      0.002452      0.000321
      0.09233      1.92047      7.71959         0.004912      0.006909     -0.002584
     11.56104      9.65516      0.02193         0.000918     -0.001228     -0.000740
     11.55488      9.63658      3.82469        -0.000101     -0.001225     -0.004377
      3.92531      1.93417      3.85204         0.001318     -0.002535      0.002685
      3.83583      5.78415     11.54304         0.000634     -0.001331     -0.000452
      3.88453      5.79020      7.80554         0.001919      0.000002     -0.000300
      7.70753      1.92447      0.03889        -0.003763      0.000007      0.002497
      7.64519      1.93910      3.84331        -0.000909     -0.001198      0.001273
      7.69577      5.79711      7.64654        -0.000263     -0.002044     -0.001802
      1.94201      0.04223      0.02984        -0.000185     -0.000492     -0.001419
      5.77154     11.44615      3.93091         0.000584     -0.000357      0.000196
      5.77837      7.79576      3.90991         0.000791     -0.001464      0.002409
      5.78110      7.81555      7.56066         0.002056      0.001885     -0.003400
      9.64140      0.00439      7.79757        -0.004460      0.001423     -0.000318
      9.65434      3.96823      0.11496         0.002122     -0.000051      0.002770
      9.66227      3.86396      3.89758        -0.001453     -0.000289     -0.002608
      9.65157      3.82491      7.60432        -0.000095     -0.002630     -0.004051
      9.64739      7.62409     11.56588        -0.000148      0.000961     -0.004127
      0.05356     11.54633      5.78889         0.000163     -0.003437     -0.003302
     11.56216      3.89412      9.67502        -0.003784     -0.001183     -0.004134
      0.01830      7.63165      1.94224        -0.000026     -0.000366      0.000147
      3.91237     11.55372      9.65589        -0.000467     -0.000040     -0.000512
      3.85524      3.89280      5.79205        -0.001651     -0.000671      0.002622
      3.92926      7.84605      9.67351         0.004221      0.000695      0.000164
      7.74457     11.51400      1.93671        -0.000671     -0.001372      0.002184
      7.73776      3.88791      9.67390         0.003274      0.001578     -0.004027
      7.63838      7.70120      9.66941        -0.002024     -0.000744     -0.003452
     11.52047      1.91397      0.02595         0.000931      0.000571     -0.000365
      0.05540      1.94341      3.84970         0.000202      0.001333      0.002805
      0.19410      5.80161     11.57171         0.002233     -0.000532     -0.001875
      0.03402      5.80076      3.97177         0.001065      0.000858      0.001392
      0.03501      5.84038      7.65304         0.000473     -0.001456     -0.003760
      0.01828      9.61734      7.78705        -0.000644      0.000064      0.002945
      3.93365      1.94195      0.06630        -0.000188      0.000279      0.003862
      3.81793      1.89844      7.71928        -0.002754     -0.000438     -0.000620
      3.84623      5.82369      3.81294        -0.003083      0.000787     -0.002895
      3.84762      9.66286      0.11083         0.002388      0.001297      0.001825
      3.72172      9.63990      3.88177        -0.002862      0.002146      0.000497
      3.79045      9.66681      7.61887        -0.002701     -0.001617     -0.000955
      7.63278      1.88939      7.70448        -0.002040     -0.000306     -0.001784
      7.55272      5.80793      0.10298        -0.001934      0.000968      0.001888
      7.69349      5.82329      3.91192         0.001646      0.000400      0.002950
      7.73426      9.65780     11.57817        -0.002668      0.000084      0.000324
      7.86496      9.62725      3.91344         0.003076      0.000633      0.000405
      7.76524      9.65319      7.70358         0.001361     -0.001363     -0.000278
      1.94887      0.00660      3.76496        -0.000523     -0.001858      0.001831
      1.94248     11.50468      7.78906         0.000720     -0.005122     -0.000202
      1.94396      3.75142      0.04086        -0.000340      0.001140      0.003480
      1.92566      3.89540      3.81543         0.000688      0.003783     -0.001657
      1.93487      3.90102      7.75132        -0.000844      0.001987      0.000995
      1.94476      7.77589     11.56655         0.000921      0.000281     -0.001962
      1.94340      7.67814      3.90927        -0.001584     -0.000934      0.000886
      1.90889      7.75471      7.69395         0.001055      0.000840     -0.002114
      5.75499     11.54057      0.02833        -0.000638     -0.000293      0.000227
      5.77751     11.53658      7.62220         0.000143     -0.003252      0.002294
      5.75375      3.85957      0.03400        -0.000644      0.000061      0.001395
      5.77824      4.00931      3.81345        -0.001374      0.005861     -0.000495
      5.76874      3.75055      7.76642        -0.000083     -0.002825      0.001871
      5.77408      7.78574      0.16407         0.000463      0.000997      0.004646
      9.65874     -0.00999     11.48410        -0.000380      0.002041     -0.000719
      9.65309      0.05597      3.92157        -0.001160     -0.001931      0.001438
      9.62892      7.62570      3.87950         0.001928     -0.004503      0.000256
      9.69925      7.74550      7.75648        -0.000057      0.001638     -0.000847
     11.48537      0.06597      1.95044         0.000683      0.003836     -0.000599
      0.04765     11.57118      9.65678        -0.000011     -0.000452     -0.000115
      0.07855      3.91632      1.95733         0.004067      0.003441      0.000325
      0.13740      3.87508      5.77228         0.005982      0.001669      0.000632
     11.55968      7.75119      5.83161         0.000863      0.001037     -0.000224
      0.06337      7.66245      9.61625         0.002827     -0.005582     -0.000798
      3.89748     11.55887      1.93325        -0.001530     -0.001549      0.001101
      3.75022     -0.00310      5.82451         0.001986     -0.001754      0.000840
      3.84641      3.90459      1.93638        -0.001097     -0.000822     -0.000615
      3.84429      3.72774      9.68173        -0.001086     -0.000236      0.001289
      3.79509      7.74056      1.95571        -0.003646      0.002944     -0.000149
      3.74304      7.69907      5.76673        -0.004080      0.001714      0.001219
      7.75833     11.55455      5.80257        -0.000815     -0.003485      0.000374
      7.59341     11.54866      9.64923         0.000627     -0.001894      0.000752
      7.64527      3.95702      1.96144        -0.005676      0.002528      0.002119
      7.57680      3.83501      5.78007        -0.005435      0.001692     -0.000005
      7.73132      7.76204      1.97696         0.004458      0.001860      0.000453
      7.84898      7.78428      5.77361         0.006879      0.002725      0.002425
 -----------------------------------------------------------------------------------
    total drift:                               -0.003066      0.000812     -0.002967


--------------------------------------------------------------------------------------------------------



  FREE ENERGIE OF THE ION-ELECTRON SYSTEM (eV)
  ---------------------------------------------------
  free  energy   TOTEN  =      -720.96482125 eV

  energy  without entropy=     -720.96482125  energy(sigma->0) =     -720.96482125
 


--------------------------------------------------------------------------------------------------------


    POTLOK:  cpu time      1.0453: real time      1.0480


--------------------------------------------------------------------------------------------------------


 Quasi-Newton relaxation of ions (Broydens 2nd method)
  g(Force)  = 0.688E-04   g(Stress)= 0.646E-04

 Reset! Starting new Quasi-Newton update for ions 


--------------------------------------------------------------------------------------------------------


  
 reached required accuracy - stopping structural energy minimisation
 writing wavefunctions
     LOOP+:  cpu time   2134.2495: real time   2142.4421
    4ORBIT:  cpu time      0.0000: real time      0.0000



 total charge

# of ion       s       p       d       tot
------------------------------------------
    1        0.318   6.456   1.760   8.535
    2        0.320   6.455   1.782   8.557
    3        0.331   6.463   1.831   8.624
    4        0.321   6.450   1.813   8.585
    5        0.314   6.460   1.744   8.519
    6        0.331   6.458   1.837   8.627
    7        0.328   6.459   1.805   8.592
    8        0.323   6.458   1.826   8.608
    9        0.317   6.489   1.679   8.484
   10        0.318   6.461   1.757   8.536
   11        0.320   6.454   1.792   8.567
   12        0.315   6.463   1.745   8.523
   13        0.315   6.462   1.744   8.521
   14        0.322   6.458   1.796   8.576
   15        0.323   6.457   1.788   8.567
   16        0.321   6.457   1.782   8.560
   17        0.316   6.470   1.712   8.498
   18        0.331   6.459   1.838   8.627
   19        0.320   6.452   1.796   8.568
   20        0.327   6.458   1.799   8.584
   21        0.317   6.460   1.770   8.547
   22        0.327   6.454   1.806   8.586
   23        0.322   6.458   1.780   8.560
   24        0.328   6.454   1.813   8.595
   25        0.322   6.452   1.802   8.577
   26        0.317   6.472   1.707   8.496
   27        0.332   6.459   1.847   8.638
   28        1.571   3.482   0.000   5.053
   29        1.569   3.470   0.000   5.039
   30        1.569   3.477   0.000   5.046
   31        1.569   3.476   0.000   5.045
   32        1.570   3.468   0.000   5.038
   33        1.569   3.476   0.000   5.045
   34        1.569   3.471   0.000   5.040
   35        1.570   3.474   0.000   5.044
   36        1.569   3.477   0.000   5.046
   37        1.570   3.470   0.000   5.040
   38        1.569   3.470   0.000   5.040
   39        1.570   3.466   0.000   5.036
   40        1.571   3.480   0.000   5.051
   41        1.571   3.472   0.000   5.043
   42        1.569   3.474   0.000   5.044
   43        1.570   3.466   0.000   5.036
   44        1.568   3.474   0.000   5.043
   45        1.569   3.473   0.000   5.042
   46        1.569   3.474   0.000   5.043
   47        1.569   3.477   0.000   5.046
   48        1.571   3.480   0.000   5.051
   49        1.570   3.467   0.000   5.037
   50        1.569   3.476   0.000   5.045
   51        1.570   3.473   0.000   5.043
   52        1.570   3.475   0.000   5.045
   53        1.568   3.474   0.000   5.043
   54        1.569   3.477   0.000   5.046
   55        1.729   4.377   0.000   6.106
   56        1.729   4.376   0.000   6.106
   57        1.729   4.380   0.000   6.110
   58        1.730   4.380   0.000   6.110
   59        1.732   4.372   0.000   6.104
   60        1.732   4.371   0.000   6.103
   61        1.730   4.377   0.000   6.106
   62        1.730   4.374   0.000   6.104
   63        1.730   4.376   0.000   6.107
   64        1.730   4.382   0.000   6.111
   65        1.731   4.376   0.000   6.106
   66        1.730   4.380   0.000   6.110
   67        1.730   4.376   0.000   6.105
   68        1.730   4.379   0.000   6.108
   69        1.731   4.373   0.000   6.104
   70        1.729   4.378   0.000   6.107
   71        1.731   4.377   0.000   6.108
   72        1.730   4.379   0.000   6.109
   73        1.729   4.378   0.000   6.107
   74        1.730   4.384   0.000   6.115
   75        1.730   4.375   0.000   6.106
   76        1.730   4.380   0.000   6.109
   77        1.730   4.380   0.000   6.109
   78        1.730   4.379   0.000   6.109
   79        1.730   4.383   0.000   6.112
   80        1.732   4.373   0.000   6.105
   81        1.729   4.381   0.000   6.111
   82        1.730   4.374   0.000   6.104
   83        1.731   4.378   0.000   6.108
   84        1.730   4.382   0.000   6.112
   85        1.730   4.378   0.000   6.108
   86        1.730   4.377   0.000   6.107
   87        1.729   4.381   0.000   6.110
   88        1.729   4.380   0.000   6.109
   89        1.729   4.382   0.000   6.111
   90        1.731   4.372   0.000   6.103
   91        1.729   4.377   0.000   6.106
   92        1.729   4.381   0.000   6.110
   93        1.730   4.374   0.000   6.104
   94        1.730   4.377   0.000   6.107
   95        1.731   4.373   0.000   6.105
   96        1.731   4.373   0.000   6.104
   97        1.729   4.383   0.000   6.112
   98        1.729   4.378   0.000   6.107
   99        1.730   4.379   0.000   6.109
  100        1.729   4.376   0.000   6.105
  101        1.731   4.373   0.000   6.103
  102        1.731   4.378   0.000   6.109
  103        1.730   4.379   0.000   6.108
  104        1.729   4.375   0.000   6.105
  105        1.730   4.377   0.000   6.107
  106        1.730   4.377   0.000   6.107
  107        1.731   4.371   0.000   6.102
  108        1.731   4.378   0.000   6.109
--------------------------------------------------
tot        144.494 504.579  48.151 697.224



 magnetization (x)

# of ion       s       p       d       tot
------------------------------------------
    1       -0.000  -0.000  -0.000  -0.000
    2       -0.000  -0.000   0.000   0.000
    3       -0.000  -0.000  -0.000  -0.000
    4       -0.000  -0.000   0.000  -0.000
    5       -0.000  -0.000  -0.000  -0.000
    6       -0.000  -0.000  -0.000  -0.000
    7       -0.000  -0.000   0.000   0.000
    8       -0.000  -0.000  -0.000  -0.000
    9       -0.000  -0.000   0.000   0.000
   10       -0.000  -0.000   0.000  -0.000
   11       -0.000  -0.000  -0.000  -0.000
   12       -0.000  -0.000   0.000  -0.000
   13       -0.000  -0.000   0.000   0.000
   14       -0.000  -0.000   0.000  -0.000
   15       -0.000  -0.000   0.000   0.000
   16       -0.000  -0.000   0.000   0.000
   17       -0.000  -0.000   0.000  -0.000
   18       -0.000  -0.000  -0.000  -0.000
   19       -0.000   0.000  -0.000  -0.000
   20       -0.000  -0.000  -0.000  -0.000
   21       -0.000   0.000   0.000   0.000
   22       -0.000  -0.000  -0.000  -0.000
   23       -0.000  -0.000   0.000   0.000
   24       -0.000  -0.000  -0.000  -0.000
   25       -0.000  -0.000  -0.000  -0.000
   26       -0.000  -0.000   0.000   0.000
   27       -0.000  -0.000   0.000   0.000
   28        0.000   0.000   0.000   0.000
   29        0.000   0.000   0.000   0.000
   30        0.000  -0.000   0.000  -0.000
   31        0.000  -0.000   0.000   0.000
   32        0.000  -0.000   0.000  -0.000
   33        0.000  -0.000   0.000   0.000
   34        0.000   0.000   0.000   0.000
   35        0.000  -0.000   0.000   0.000
   36        0.000  -0.000   0.000   0.000
   37        0.000  -0.000   0.000   0.000
   38        0.000   0.000   0.000   0.000
   39        0.000  -0.000   0.000  -0.000
   40        0.000   0.000   0.000   0.000
   41        0.000  -0.000   0.000  -0.000
   42        0.000   0.000   0.000   0.000
   43        0.000  -0.000   0.000  -0.000
   44        0.000   0.000   0.000   0.000
   45        0.000  -0.000   0.000  -0.000
   46       -0.000  -0.000   0.000  -0.000
   47        0.000   0.000   0.000   0.000
   48        0.000  -0.000   0.000  -0.000
   49        0.000  -0.000   0.000  -0.000
   50        0.000  -0.000   0.000   0.000
   51        0.000   0.000   0.000   0.000
   52        0.000   0.000   0.000   0.000
   53        0.000   0.000   0.000   0.000
   54        0.000   0.000   0.000   0.000
   55        0.000   0.000   0.000   0.000
   56        0.000  -0.000   0.000  -0.000
   57        0.000   0.000   0.000   0.000
   58        0.000   0.000   0.000   0.000
   59        0.000   0.000   0.000   0.000
   60        0.000  -0.000   0.000   0.000
   61        0.000  -0.000   0.000  -0.000
   62        0.000  -0.000   0.000  -0.000
   63        0.000  -0.000   0.000   0.000
   64        0.000   0.000   0.000   0.000
   65        0.000   0.000   0.000   0.000
   66        0.000   0.000   0.000   0.000
   67        0.000  -0.000   0.000  -0.000
   68        0.000   0.000   0.000   0.000
   69        0.000  -0.000   0.000  -0.000
   70        0.000   0.000   0.000   0.000
   71        0.000   0.000   0.000   0.000
   72        0.000   0.000   0.000   0.000
   73        0.000   0.000   0.000   0.000
   74        0.000   0.000   0.000   0.000
   75        0.000  -0.000   0.000  -0.000
   76        0.000   0.000   0.000   0.000
   77        0.000   0.000   0.000   0.000
   78        0.000   0.000   0.000   0.000
   79        0.000   0.000   0.000   0.000
   80        0.000   0.000   0.000   0.000
   81        0.000   0.000   0.000   0.000
   82        0.000  -0.000   0.000  -0.000
   83        0.000  -0.000   0.000  -0.000
   84        0.000   0.000   0.000   0.000
   85        0.000   0.000   0.000   0.000
   86        0.000   0.000   0.000   0.000
   87        0.000   0.000   0.000   0.000
   88        0.000   0.000   0.000   0.000
   89        0.000   0.000   0.000   0.000
   90        0.000  -0.000   0.000  -0.000
   91        0.000   0.000   0.000   0.000
   92        0.000   0.000   0.000   0.000
   93        0.000  -0.000   0.000  -0.000
   94        0.000   0.000   0.000   0.000
   95        0.000   0.000   0.000   0.000
   96        0.000  -0.000   0.000  -0.000
   97        0.000   0.000   0.000   0.000
   98        0.000   0.000   0.000   0.000
   99        0.000   0.000   0.000   0.000
  100        0.000  -0.000   0.000  -0.000
  101        0.000  -0.000   0.000   0.000
  102        0.000   0.000   0.000   0.000
  103        0.000   0.000   0.000   0.000
  104        0.000  -0.000   0.000  -0.000
  105        0.000   0.000   0.000   0.000
  106        0.000   0.000   0.000   0.000
  107        0.000  -0.000   0.000  -0.000
  108        0.000   0.000   0.000   0.000
--------------------------------------------------
tot          0.000   0.000   0.000   0.000
 

 total amount of memory used by VASP MPI-rank0   298194. kBytes
=======================================================================

   base      :      30000. kBytes
   nonlr-proj:      25311. kBytes
   fftplans  :      18873. kBytes
   grid      :      21088. kBytes
   one-center:        435. kBytes
   wavefun   :     202487. kBytes
 
  
  
 General timing and accounting informations for this job:
 ========================================================
  
                  Total CPU time used (sec):     2235.156
                            User time (sec):     2207.881
                          System time (sec):       27.275
                         Elapsed time (sec):     2245.713
  
                   Maximum memory used (kb):      892204.
                   Average memory used (kb):          N/A
  
                          Minor page faults:       317906
                          Major page faults:           14
                 Voluntary context switches:        22576
