 vasp.5.4.4.18Apr17-6-g9f103f2a35 (build Jul 16 2019 12:12:28) complex          
  
 executed on             LinuxIFC date 2020.01.06  13:08:12
 running on   96 total cores
 distrk:  each k-point on   96 cores,    1 groups
 distr:  one band on NCORES_PER_BAND=   8 cores,   12 groups


--------------------------------------------------------------------------------------------------------


 INCAR:
 POTCAR:    PAW_PBE Li_sv 10Sep2004               
 POTCAR:    PAW_PBE Ti_pv 07Sep2000               
 POTCAR:    PAW_PBE O 08Apr2002                   
 POTCAR:    PAW_PBE F 08Apr2002                   
 POTCAR:    PAW_PBE Li_sv 10Sep2004               
   VRHFIN =Li: 1s2s2p                                                           
   LEXCH  = PE                                                                  
   EATOM  =   202.7858 eV,   14.9043 Ry                                         
                                                                                
   TITEL  = PAW_PBE Li_sv 10Sep2004                                             
   LULTRA =        F    use ultrasoft PP ?                                      
   IUNSCR =        0    unscreen: 0-lin 1-nonlin 2-no                           
   RPACOR =    0.000    partial core radius                                     
   POMASS =    7.010; ZVAL   =    3.000    mass and valenz                      
   RCORE  =    1.700    outmost cutoff radius                                   
   RWIGS  =    2.050; RWIGS  =    1.085    wigner-seitz radius (au A)           
   ENMAX  =  499.034; ENMIN  =  374.276 eV                                      
   ICORE  =        2    local potential                                         
   LCOR   =        T    correct aug charges                                     
   LPAW   =        T    paw PP                                                  
   EAUG   =  628.945                                                            
   RMAX   =    1.732    core radius for proj-oper                               
   RAUG   =    1.300    factor for augmentation sphere                          
   RDEP   =    1.728    radius for radial grids                                 
   RDEPT  =    1.329    core radius for aug-charge                              
                                                                                
   Atomic configuration                                                         
    4 entries                                                                   
     n  l   j            E        occ.                                          
     1  0  0.50       -51.8549   2.0000                                         
     2  0  0.50        -2.8742   1.0000                                         
     2  1  0.50        -1.3606   0.0000                                         
     3  2  1.50        -1.3606   0.0000                                         
   Description                                                                  
     l       E           TYP  RCUT    TYP  RCUT                                 
     0    -51.8548813     23  1.400                                             
     0     -2.8742052     23  1.700                                             
     1     -1.3605826     23  1.400                                             
     2     -1.3605826     23  1.400                                             
  local pseudopotential read in
  atomic valenz-charges read in
  non local Contribution for L=           0  read in
    real space projection operators read in
  non local Contribution for L=           0  read in
    real space projection operators read in
  non local Contribution for L=           1  read in
    real space projection operators read in
    PAW grid and wavefunctions read in
 
   number of l-projection  operators is LMAX  =           3
   number of lm-projection operators is LMMAX =           5
 
 POTCAR:    PAW_PBE Ti_pv 07Sep2000               
   VRHFIN =Ti: d3 s1                                                            
   LEXCH  = PE                                                                  
   EATOM  =  1042.5995 eV,   76.6289 Ry                                         
                                                                                
   TITEL  = PAW_PBE Ti_pv 07Sep2000                                             
   LULTRA =        F    use ultrasoft PP ?                                      
   IUNSCR =        1    unscreen: 0-lin 1-nonlin 2-no                           
   RPACOR =    2.200    partial core radius                                     
   POMASS =   47.880; ZVAL   =   10.000    mass and valenz                      
   RCORE  =    2.500    outmost cutoff radius                                   
   RWIGS  =    2.500; RWIGS  =    1.323    wigner-seitz radius (au A)           
   ENMAX  =  222.335; ENMIN  =  166.751 eV                                      
   RCLOC  =    1.701    cutoff for local pot                                    
   LCOR   =        T    correct aug charges                                     
   LPAW   =        T    paw PP                                                  
   EAUG   =  482.848                                                            
   DEXC   =    0.000                                                            
   RMAX   =    2.564    core radius for proj-oper                               
   RAUG   =    1.300    factor for augmentation sphere                          
   RDEP   =    2.538    radius for radial grids                                 
   RDEPT  =    1.952    core radius for aug-charge                              
                                                                                
   Atomic configuration                                                         
    8 entries                                                                   
     n  l   j            E        occ.                                          
     1  0  0.50     -4865.3608   2.0000                                         
     2  0  0.50      -533.1368   2.0000                                         
     2  1  1.50      -440.5031   6.0000                                         
     3  0  0.50       -59.3186   2.0000                                         
     3  1  1.50       -35.7012   6.0000                                         
     3  2  2.50        -1.9157   3.0000                                         
     4  0  0.50        -3.7291   1.0000                                         
     4  3  2.50        -1.3606   0.0000                                         
   Description                                                                  
     l       E           TYP  RCUT    TYP  RCUT                                 
     1    -35.7012140     23  2.300                                             
     1     -1.3605826     23  2.300                                             
     2     -1.9156996     23  2.500                                             
     2     -0.4063033     23  2.500                                             
     0     -3.7290856     23  2.500                                             
     0     20.4087390     23  2.500                                             
  local pseudopotential read in
  partial core-charges read in
  partial kinetic energy density read in
  atomic valenz-charges read in
  non local Contribution for L=           1  read in
    real space projection operators read in
  non local Contribution for L=           1  read in
    real space projection operators read in
  non local Contribution for L=           2  read in
    real space projection operators read in
  non local Contribution for L=           2  read in
    real space projection operators read in
  non local Contribution for L=           0  read in
    real space projection operators read in
  non local Contribution for L=           0  read in
    real space projection operators read in
    PAW grid and wavefunctions read in
 
   number of l-projection  operators is LMAX  =           6
   number of lm-projection operators is LMMAX =          18
 
 POTCAR:    PAW_PBE O 08Apr2002                   
   VRHFIN =O: s2p4                                                              
   LEXCH  = PE                                                                  
   EATOM  =   432.3788 eV,   31.7789 Ry                                         
                                                                                
   TITEL  = PAW_PBE O 08Apr2002                                                 
   LULTRA =        F    use ultrasoft PP ?                                      
   IUNSCR =        1    unscreen: 0-lin 1-nonlin 2-no                           
   RPACOR =    1.200    partial core radius                                     
   POMASS =   16.000; ZVAL   =    6.000    mass and valenz                      
   RCORE  =    1.520    outmost cutoff radius                                   
   RWIGS  =    1.550; RWIGS  =    0.820    wigner-seitz radius (au A)           
   ENMAX  =  400.000; ENMIN  =  300.000 eV                                      
   ICORE  =        2    local potential                                         
   LCOR   =        T    correct aug charges                                     
   LPAW   =        T    paw PP                                                  
   EAUG   =  605.392                                                            
   DEXC   =    0.000                                                            
   RMAX   =    1.553    core radius for proj-oper                               
   RAUG   =    1.300    factor for augmentation sphere                          
   RDEP   =    1.550    radius for radial grids                                 
   RDEPT  =    1.329    core radius for aug-charge                              
                                                                                
   Atomic configuration                                                         
    4 entries                                                                   
     n  l   j            E        occ.                                          
     1  0  0.50      -514.6923   2.0000                                         
     2  0  0.50       -23.9615   2.0000                                         
     2  1  0.50        -9.0305   4.0000                                         
     3  2  1.50        -9.5241   0.0000                                         
   Description                                                                  
     l       E           TYP  RCUT    TYP  RCUT                                 
     0    -23.9615318     23  1.200                                             
     0     -9.5240782     23  1.200                                             
     1     -9.0304911     23  1.520                                             
     1      8.1634956     23  1.520                                             
     2     -9.5240782      7  1.500                                             
  local pseudopotential read in
  partial core-charges read in
  partial kinetic energy density read in
  kinetic energy density of atom read in
  atomic valenz-charges read in
  non local Contribution for L=           0  read in
    real space projection operators read in
  non local Contribution for L=           0  read in
    real space projection operators read in
  non local Contribution for L=           1  read in
    real space projection operators read in
  non local Contribution for L=           1  read in
    real space projection operators read in
    PAW grid and wavefunctions read in
 
   number of l-projection  operators is LMAX  =           4
   number of lm-projection operators is LMMAX =           8
 
 POTCAR:    PAW_PBE F 08Apr2002                   
   VRHFIN =F: s2p5                                                              
   LEXCH  = PE                                                                  
   EATOM  =   659.6475 eV,   48.4827 Ry                                         
                                                                                
   TITEL  = PAW_PBE F 08Apr2002                                                 
   LULTRA =        F    use ultrasoft PP ?                                      
   IUNSCR =        1    unscreen: 0-lin 1-nonlin 2-no                           
   RPACOR =    1.200    partial core radius                                     
   POMASS =   18.998; ZVAL   =    7.000    mass and valenz                      
   RCORE  =    1.520    outmost cutoff radius                                   
   RWIGS  =    1.500; RWIGS  =    0.794    wigner-seitz radius (au A)           
   ENMAX  =  400.000; ENMIN  =  300.000 eV                                      
   ICORE  =        2    local potential                                         
   LCOR   =        T    correct aug charges                                     
   LPAW   =        T    paw PP                                                  
   EAUG   =  613.614                                                            
   RMAX   =    1.555    core radius for proj-oper                               
   RAUG   =    1.300    factor for augmentation sphere                          
   RDEP   =    1.539    radius for radial grids                                 
   RDEPT  =    1.299    core radius for aug-charge                              
                                                                                
   Atomic configuration                                                         
    4 entries                                                                   
     n  l   j            E        occ.                                          
     1  0  0.50      -663.3661   2.0000                                         
     2  0  0.50       -29.8995   2.0000                                         
     2  1  0.50       -11.1114   5.0000                                         
     3  2  1.50       -10.8847   0.0000                                         
   Description                                                                  
     l       E           TYP  RCUT    TYP  RCUT                                 
     0    -29.8995018     23  1.200                                             
     0     -9.5240782     23  1.200                                             
     1    -11.1113914     23  1.520                                             
     1      1.3605826     23  1.520                                             
     2    -10.8846608      7  1.500                                             
  local pseudopotential read in
  partial core-charges read in
  partial kinetic energy density read in
  atomic valenz-charges read in
  non local Contribution for L=           0  read in
    real space projection operators read in
  non local Contribution for L=           0  read in
    real space projection operators read in
  non local Contribution for L=           1  read in
    real space projection operators read in
  non local Contribution for L=           1  read in
    real space projection operators read in
    PAW grid and wavefunctions read in
 
   number of l-projection  operators is LMAX  =           4
   number of lm-projection operators is LMMAX =           8
 
 Optimization of the real space projectors (new method)

 maximal supplied QI-value         = 22.11
 optimisation between [QCUT,QGAM] = [ 11.28, 22.77] = [ 35.61,145.23] Ry 
 Optimized for a Real-space Cutoff    1.31 Angstroem

   l    n(q)    QCUT    max X(q) W(low)/X(q) W(high)/X(q)  e(spline) 
   0      9    11.276    10.506    0.19E-04    0.17E-04    0.32E-07
   0      9    11.276     8.367    0.38E-04    0.40E-04    0.65E-07
   1      8    11.276     8.983    0.55E-04    0.98E-04    0.20E-06
 Optimization of the real space projectors (new method)

 maximal supplied QI-value         = 15.12
 optimisation between [QCUT,QGAM] = [ 11.34, 22.83] = [ 36.00,145.93] Ry 
 Optimized for a Real-space Cutoff    1.56 Angstroem

   l    n(q)    QCUT    max X(q) W(low)/X(q) W(high)/X(q)  e(spline) 
   1     10    11.338     4.216    0.27E-04    0.12E-04    0.66E-07
   1     10    11.338     5.422    0.81E-04    0.24E-04    0.19E-06
   2     10    11.338    72.084    0.64E-04    0.21E-03    0.51E-06
   2     10    11.338    65.965    0.63E-04    0.21E-03    0.50E-06
   0     11    11.338    41.531    0.33E-04    0.54E-04    0.13E-06
   0     11    11.338    16.290    0.26E-04    0.41E-04    0.11E-06
 Optimization of the real space projectors (new method)

 maximal supplied QI-value         = 24.76
 optimisation between [QCUT,QGAM] = [ 11.39, 22.77] = [ 36.31,145.25] Ry 
 Optimized for a Real-space Cutoff    1.20 Angstroem

   l    n(q)    QCUT    max X(q) W(low)/X(q) W(high)/X(q)  e(spline) 
   0      8    11.387    20.381    0.89E-04    0.31E-03    0.27E-06
   0      8    11.387    15.268    0.93E-04    0.32E-03    0.29E-06
   1      8    11.387     5.964    0.53E-04    0.28E-03    0.29E-06
   1      8    11.387     5.382    0.37E-04    0.22E-03    0.26E-06
 Optimization of the real space projectors (new method)

 maximal supplied QI-value         = 24.76
 optimisation between [QCUT,QGAM] = [ 11.39, 22.77] = [ 36.31,145.25] Ry 
 Optimized for a Real-space Cutoff    1.20 Angstroem

   l    n(q)    QCUT    max X(q) W(low)/X(q) W(high)/X(q)  e(spline) 
   0      8    11.387    14.049    0.69E-04    0.23E-03    0.18E-06
   0      8    11.387     8.945    0.88E-04    0.30E-03    0.26E-06
   1      8    11.387     7.086    0.62E-04    0.27E-03    0.27E-06
   1      8    11.387     6.747    0.46E-04    0.23E-03    0.25E-06

 ----------------------------------------------------------------------------- 
|                                                                             |
|  ADVICE TO THIS USER RUNNING 'VASP/VAMP'   (HEAR YOUR MASTER'S VOICE ...):  |
|                                                                             |
|      You enforced a specific xc-type in the INCAR file,                     |
|      a different type was found on the POTCAR file                          |
|          I HOPE YOU KNOW, WHAT YOU ARE  DOING                               |
|                                                                             |
 ----------------------------------------------------------------------------- 

  PAW_PBE Li_sv 10Sep2004               :
 energy of atom  1       EATOM= -202.7858
 kinetic energy error for atom=    0.0143 (will be added to EATOM!!)
  PAW_PBE Ti_pv 07Sep2000               :
 energy of atom  2       EATOM=-1042.5995
 kinetic energy error for atom=    0.0024 (will be added to EATOM!!)
  PAW_PBE O 08Apr2002                   :
 energy of atom  3       EATOM= -432.3788
 kinetic energy error for atom=    0.0224 (will be added to EATOM!!)
  PAW_PBE F 08Apr2002                   :
 energy of atom  4       EATOM= -659.6475
 kinetic energy error for atom=    0.0354 (will be added to EATOM!!)
 
 
 POSCAR: config 59                               
  positions in direct lattice
  velocities in cartesian coordinates
 exchange correlation table for  LEXCH =       14
   RHO(1)=    0.500       N(1)  =     2000
   RHO(2)=  100.500       N(2)  =     4000

 VTST: version 3.2, (02/03/18)

 CHAIN: initializing optimizer
 
 OPT: Using VASP QUASI-newton optimizer
 CHAIN: Read ICHAIN            0
 
 POSCAR: config 59                               
  positions in direct lattice
  velocities in cartesian coordinates
 


--------------------------------------------------------------------------------------------------------


 ion  position               nearest neighbor table
   1  0.874  0.564  0.623- 104 1.95 108 1.99  79 2.07  66 2.13   5 2.77  49 2.78  13 2.80  41 2.86

   2  0.995  0.994  0.995- 118 1.87  68 1.88 103 1.89 171 2.03 130 2.05 212 2.05
   3  0.999  0.990  0.494- 119 1.82  67 1.82 172 1.95 193 1.97 131 2.01 213 2.10
   4  0.006  0.495  0.998-  89 1.84 117 1.86 138 1.94 132 1.98 214 2.02 194 2.03
   5  0.996  0.505  0.505- 104 1.78  66 1.89 215 1.96 137 2.01 173 2.02 223 2.03   1 2.77
   6  0.494  0.993  0.000- 101 1.83 121 1.85 140 1.96 133 1.97 216 2.03 174 2.03
   7  0.502  0.010  0.498- 112 1.78 191 1.92 134 1.92 139 1.93 175 1.94 225 2.04
   8  0.504  0.495  0.996-  70 1.88 120 1.88  90 1.89 192 2.03 135 2.04 217 2.06
   9  0.491  0.500  0.495- 102 1.81  69 1.86 176 2.00 224 2.00 218 2.01 136 2.02
  10  0.006  0.002  0.256-  91 1.83  67 1.86 219 1.96 227 1.97 130 2.00 197 2.06
  11  0.003  0.007  0.758-  68 1.79 113 1.84 177 1.95 198 1.99 228 2.07 131 2.07
  12  0.993  0.493  0.250- 107 1.82 122 1.86 137 1.94 132 1.96 220 2.02 178 2.03
  13  0.995  0.501  0.743-  66 1.83 108 1.85 226 1.93 221 1.99 138 2.02 179 2.02   1 2.80
  14  0.505  0.009  0.251- 114 1.82  92 1.83 133 1.93 139 1.99 195 2.01 231 2.06
  15  0.494  0.007  0.753- 105 1.81 115 1.84 140 1.94 134 2.00 232 2.02 180 2.05
  16  0.492  0.496  0.257-  69 1.82 106 1.84 229 1.96 222 2.01 135 2.03 181 2.05
  17  0.502  0.505  0.759-  70 1.80 116 1.88 182 1.97 196 1.97 230 2.04 136 2.06
  18  0.996  0.258  0.002- 117 1.82 110 1.88 141 1.97 146 1.98 183 2.01 212 2.03
  19  0.999  0.249  0.491-  74 1.78 213 1.92 202 1.94 184 1.94 223 1.95 142 2.02
  20  0.998  0.757  0.007- 118 1.81  71 1.85 203 1.95 185 1.98 148 2.06 214 2.07
  21  0.997  0.756  0.507- 119 1.83  72 1.85 204 1.96 186 1.97 147 2.02 215 2.03
  22  0.495  0.258  0.002- 120 1.80 109 1.85 150 1.96 143 1.98 187 2.04 216 2.08
  23  0.510  0.247  0.498-  93 1.80 112 1.91 144 1.93 149 1.95 224 1.98 199 2.02
  24  0.507  0.756  1.000-  94 1.83 121 1.84 152 1.94 145 1.99 217 2.02 200 2.03
  25  0.507  0.754  0.509-  73 1.79  95 1.83 218 1.98 225 1.98 201 2.02 151 2.08
  26  0.999  0.259  0.255- 122 1.80  74 1.88 209 1.95 188 1.97 141 2.00 219 2.04
  27  0.009  0.243  0.749- 113 1.81  96 1.83 142 1.97 146 1.98 210 2.06 226 2.08
  28  0.006  0.747  0.243-  71 1.82  97 1.83 220 1.96 227 1.98 211 2.06 147 2.06
  29  0.993  0.750  0.743- 111 1.84  72 1.85 228 1.94 221 1.99 148 2.02 189 2.03
  30  0.507  0.241  0.252-  98 1.82 114 1.83 143 1.94 149 1.97 229 2.02 205 2.03
  31  0.509  0.244  0.751-  99 1.84 115 1.85 150 1.93 144 1.98 206 2.03 230 2.03
  32  0.506  0.751  0.252- 100 1.79 151 1.93 231 1.94 222 1.94 145 1.94 207 2.01
  33  0.503  0.742  0.744- 116 1.81  73 1.84 190 1.95 208 1.97 152 2.03 232 2.08
  34  0.256  0.997  0.005-  75 1.84 101 1.86 246 1.93 233 1.97 171 2.02 157 2.04
  35  0.252  0.993  0.506- 128 1.83  76 1.84 172 1.95 191 2.00 156 2.02 234 2.03
  36  0.243  0.508  0.998- 123 1.82  89 1.84 159 1.94 153 1.97 192 2.02 245 2.04
  37  0.256  0.494  0.507-  77 1.86 102 1.87 127 1.89 173 2.02 158 2.05 235 2.06
  38  0.757  1.000  0.994- 103 1.79  81 1.87 236 1.96 249 1.96 154 2.04 174 2.06
  39  0.750  0.009  0.494- 124 1.83  80 1.84 193 1.94 155 2.00 175 2.00 250 2.04
  40  0.741  0.501  0.004-  90 1.80  78 1.86 237 1.96 247 1.96 161 2.01 194 2.07
  41  0.751  0.499  0.500-  79 1.96 160 1.99 248 2.03 176 2.04 104 2.04 238 2.05   1 2.86
  42  0.244  0.002  0.243-  75 1.83  91 1.85 239 1.94 252 1.97 156 2.04 195 2.06
  43  0.259  0.999  0.744-  76 1.84 105 1.84 253 1.93 240 1.97 157 2.02 177 2.04
  44  0.255  0.491  0.252- 129 1.83 106 1.83 158 1.93 153 1.97 241 2.04 178 2.05
  45  0.247  0.507  0.741-  77 1.79 125 1.84 179 1.96 196 1.98 251 2.04 159 2.06
  46  0.743  0.001  0.256-  80 1.85  92 1.85 256 1.95 242 1.96 154 2.00 197 2.01
  47  0.747  0.007  0.756-  81 1.82 126 1.84 180 1.95 198 1.97 257 2.05 155 2.06
  48  0.755  0.498  0.241-  78 1.80 107 1.86 243 1.96 254 1.96 181 2.03 160 2.03
  49  0.757  0.500  0.744-  79 1.80 108 1.88 255 1.94 244 2.00 182 2.01 161 2.03   1 2.78
  50  0.257  0.252  0.006- 109 1.83  82 1.86 245 1.94 233 1.97 168 2.03 183 2.06
  51  0.255  0.257  0.505- 127 1.80  83 1.85 199 1.97 184 2.02 167 2.04 234 2.06
  52  0.252  0.742  0.994- 123 1.82  86 1.83 200 1.95 185 1.97 162 2.04 246 2.04
  53  0.253  0.756  0.493-  85 1.83 128 1.86 201 1.96 186 1.98 235 2.01 163 2.04
  54  0.757  0.252  0.008- 110 1.81  84 1.86 236 1.94 247 1.94 170 2.03 187 2.05
  55  0.743  0.244  0.497- 124 1.83  93 1.85 169 1.94 248 1.96 164 1.96 202 2.06
  56  0.741  0.749  0.995-  94 1.82  88 1.84 237 1.95 249 1.95 203 2.02 165 2.03
  57  0.741  0.754  0.494-  95 1.82  87 1.86 238 1.92 250 1.96 166 2.02 204 2.07
  58  0.250  0.257  0.243- 129 1.82  82 1.83 205 1.97 188 2.00 167 2.03 239 2.04
  59  0.245  0.253  0.744-  83 1.83  96 1.85 251 1.94 240 1.99 168 2.04 206 2.06
  60  0.243  0.747  0.256-  97 1.83  85 1.84 241 1.94 252 1.98 162 2.03 207 2.06
  61  0.247  0.742  0.757- 125 1.82  86 1.84 189 1.95 208 1.98 163 2.03 253 2.05
  62  0.741  0.250  0.242-  84 1.80  98 1.83 254 1.94 242 1.95 209 2.05 169 2.06
  63  0.744  0.243  0.751- 126 1.82  99 1.84 170 1.94 164 1.99 210 2.03 255 2.06
  64  0.745  0.750  0.257-  87 1.81 100 1.90 243 1.94 256 1.95 211 1.98 165 2.03
  65  0.758  0.751  0.758-  88 1.83 111 1.83 257 1.94 244 1.97 190 2.04 166 2.05
  66  0.004  0.518  0.626-  13 1.83   5 1.89   1 2.13
  67  0.000  0.994  0.376-   3 1.82  10 1.86
  68  0.004  0.992  0.873-  11 1.79   2 1.88
  69  0.496  0.489  0.375-  16 1.82   9 1.86
  70  0.493  0.492  0.875-  17 1.80   8 1.88
  71  1.000  0.738  0.126-  28 1.82  20 1.85
  72  0.002  0.736  0.624-  21 1.85  29 1.85
  73  0.504  0.745  0.625-  25 1.79  33 1.84
  74  0.990  0.259  0.376-  19 1.78  26 1.88
  75  0.257  0.000  0.125-  42 1.83  34 1.84
  76  0.259  0.002  0.625-  43 1.84  35 1.84
  77  0.240  0.494  0.626-  45 1.79  37 1.86
  78  0.746  0.491  0.125-  48 1.80  40 1.86
  79  0.754  0.504  0.628-  49 1.80  41 1.96   1 2.07
  80  0.746  0.001  0.376-  39 1.84  46 1.85
  81  0.742  1.000  0.873-  47 1.82  38 1.87
  82  0.241  0.251  0.126-  58 1.83  50 1.86
  83  0.248  0.251  0.625-  59 1.83  51 1.85
  84  0.738  0.259  0.126-  62 1.80  54 1.86
  85  0.255  0.745  0.375-  53 1.83  60 1.84
  86  0.253  0.750  0.875-  52 1.83  61 1.84
  87  0.753  0.752  0.374-  64 1.81  57 1.86
  88  0.752  0.753  0.876-  65 1.83  56 1.84
  89  0.124  0.509  0.992-   4 1.84  36 1.84
  90  0.625  0.512  0.996-  40 1.80   8 1.89
  91  0.125  0.008  0.248-  10 1.83  42 1.85
  92  0.624  0.008  0.247-  14 1.83  46 1.85
  93  0.625  0.265  0.488-  23 1.80  55 1.85
  94  0.624  0.737  0.999-  56 1.82  24 1.83
  95  0.624  0.772  0.495-  57 1.82  25 1.83
  96  0.126  0.263  0.755-  27 1.83  59 1.85
  97  0.124  0.744  0.254-  60 1.83  28 1.83
  98  0.625  0.239  0.265-  30 1.82  62 1.83
  99  0.627  0.263  0.755-  63 1.84  31 1.84
 100  0.622  0.746  0.253-  32 1.79  64 1.90
 101  0.376  0.993  0.991-   6 1.83  34 1.86
 102  0.375  0.513  0.506-   9 1.81  37 1.87
 103  0.873  0.994  0.997-  38 1.79   2 1.89
 104  0.881  0.517  0.505-   5 1.78   1 1.95  41 2.04
 105  0.377  0.009  0.760-  15 1.81  43 1.84
 106  0.373  0.491  0.246-  44 1.83  16 1.84
 107  0.875  0.491  0.248-  12 1.82  48 1.86
 108  0.877  0.521  0.744-  13 1.85  49 1.88   1 1.99
 109  0.376  0.254  0.009-  50 1.83  22 1.85
 110  0.874  0.255  0.010-  54 1.81  18 1.88
 111  0.875  0.733  0.746-  65 1.83  29 1.84
 112  0.517  0.123  0.487-   7 1.78  23 1.91
 113  0.011  0.126  0.756-  27 1.81  11 1.84
 114  0.489  0.125  0.267-  14 1.82  30 1.83
 115  0.513  0.125  0.757-  15 1.84  31 1.85
 116  0.513  0.626  0.757-  33 1.81  17 1.88
 117  0.006  0.375  0.012-  18 1.82   4 1.86
 118  0.007  0.874  0.009-  20 1.81   2 1.87
 119  0.984  0.874  0.509-   3 1.82  21 1.83
 120  0.508  0.374  0.012-  22 1.80   8 1.88
 121  0.509  0.875  0.012-  24 1.84   6 1.85
 122  0.011  0.374  0.238-  26 1.80  12 1.86
 123  0.260  0.625  0.004-  52 1.82  36 1.82
 124  0.734  0.125  0.504-  39 1.83  55 1.83
 125  0.236  0.625  0.749-  61 1.82  45 1.84
 126  0.740  0.126  0.744-  63 1.82  47 1.84
 127  0.262  0.373  0.493-  51 1.80  37 1.89
 128  0.263  0.876  0.498-  35 1.83  53 1.86
 129  0.238  0.374  0.258-  58 1.82  44 1.83
 130  0.995  0.010  0.126-  10 2.00   2 2.05
 131  0.999  0.009  0.623-   3 2.01  11 2.07
 132  0.004  0.516  0.125-  12 1.96   4 1.98
 133  0.490  0.014  0.126-  14 1.93   6 1.97
 134  0.494  0.008  0.623-   7 1.92  15 2.00
 135  0.503  0.512  0.128-  16 2.03   8 2.04
 136  0.508  0.506  0.625-   9 2.02  17 2.06
 137  1.000  0.486  0.376-  12 1.94   5 2.01
 138  0.993  0.488  0.873-   4 1.94  13 2.02
 139  0.507  0.982  0.377-   7 1.93  14 1.99
 140  0.516  0.989  0.875-  15 1.94   6 1.96
 141  0.010  0.236  0.128-  18 1.97  26 2.00
 142  0.007  0.245  0.621-  27 1.97  19 2.02
 143  0.513  0.233  0.127-  30 1.94  22 1.98
 144  0.508  0.240  0.623-  23 1.93  31 1.98
 145  0.497  0.739  0.127-  32 1.94  24 1.99
 146  0.991  0.262  0.874-  27 1.98  18 1.98
 147  0.992  0.758  0.376-  21 2.02  28 2.06
 148  0.998  0.758  0.874-  29 2.02  20 2.06
 149  0.486  0.266  0.375-  23 1.95  30 1.97
 150  0.493  0.260  0.875-  31 1.93  22 1.96
 151  0.491  0.763  0.376-  32 1.93  25 2.08
 152  0.496  0.761  0.874-  24 1.94  33 2.03
 153  0.240  0.493  0.125-  44 1.97  36 1.97
 154  0.752  0.001  0.126-  46 2.00  38 2.04
 155  0.753  0.996  0.623-  39 2.00  47 2.06
 156  0.248  0.003  0.375-  35 2.02  42 2.04
 157  0.241  0.997  0.874-  43 2.02  34 2.04
 158  0.250  0.511  0.375-  44 1.93  37 2.05
 159  0.260  0.500  0.874-  36 1.94  45 2.06
 160  0.750  0.507  0.372-  41 1.99  48 2.03
 161  0.756  0.506  0.875-  40 2.01  49 2.03
 162  0.248  0.756  0.125-  60 2.03  52 2.04
 163  0.248  0.753  0.625-  61 2.03  53 2.04
 164  0.746  0.260  0.623-  55 1.96  63 1.99
 165  0.749  0.751  0.126-  64 2.03  56 2.03
 166  0.747  0.750  0.625-  57 2.02  65 2.05
 167  0.259  0.242  0.374-  58 2.03  51 2.04
 168  0.258  0.249  0.875-  50 2.03  59 2.04
 169  0.766  0.242  0.373-  55 1.94  62 2.06
 170  0.759  0.246  0.876-  63 1.94  54 2.03
 171  0.126  0.008  0.005-  34 2.02   2 2.03
 172  0.125  0.989  0.505-   3 1.95  35 1.95
 173  0.125  0.489  0.492-   5 2.02  37 2.02
 174  0.624  0.009  0.009-   6 2.03  38 2.06
 175  0.624  0.980  0.507-   7 1.94  39 2.00
 176  0.620  0.482  0.499-   9 2.00  41 2.04
 177  0.127  0.987  0.742-  11 1.95  43 2.04
 178  0.123  0.511  0.253-  12 2.03  44 2.05
 179  0.124  0.484  0.762-  45 1.96  13 2.02
 180  0.624  0.985  0.738-  47 1.95  15 2.05
 181  0.624  0.506  0.253-  48 2.03  16 2.05
 182  0.628  0.485  0.756-  17 1.97  49 2.01
 183  0.125  0.244  0.991-  18 2.01  50 2.06
 184  0.124  0.259  0.492-  19 1.94  51 2.02
 185  0.124  0.739  0.998-  52 1.97  20 1.98
 186  0.124  0.764  0.496-  21 1.97  53 1.98
 187  0.626  0.243  0.989-  22 2.04  54 2.05
 188  0.124  0.234  0.261-  26 1.97  58 2.00
 189  0.123  0.766  0.752-  61 1.95  29 2.03
 190  0.627  0.766  0.753-  33 1.95  65 2.04
 191  0.378  0.017  0.490-   7 1.92  35 2.00
 192  0.373  0.491  0.009-  36 2.02   8 2.03
 193  0.875  0.019  0.501-  39 1.94   3 1.97
 194  0.875  0.493  0.003-   4 2.03  40 2.07
 195  0.376  0.990  0.259-  14 2.01  42 2.06
 196  0.375  0.511  0.741-  17 1.97  45 1.98
 197  0.873  0.993  0.251-  46 2.01  10 2.06
 198  0.875  0.008  0.748-  47 1.97  11 1.99
 199  0.380  0.233  0.505-  51 1.97  23 2.02
 200  0.376  0.762  0.004-  52 1.95  24 2.03
 201  0.377  0.737  0.503-  53 1.96  25 2.02
 202  0.876  0.235  0.509-  19 1.94  55 2.06
 203  0.871  0.761  0.003-  20 1.95  56 2.02
 204  0.872  0.732  0.505-  21 1.96  57 2.07
 205  0.378  0.261  0.241-  58 1.97  30 2.03
 206  0.378  0.241  0.745-  31 2.03  59 2.06
 207  0.376  0.755  0.246-  32 2.01  60 2.06
 208  0.375  0.741  0.747-  33 1.97  61 1.98
 209  0.873  0.260  0.240-  26 1.95  62 2.05
 210  0.876  0.244  0.742-  63 2.03  27 2.06
 211  0.873  0.755  0.247-  64 1.98  28 2.06
 212  0.996  0.127  0.992-  18 2.03   2 2.05
 213  0.013  0.126  0.495-  19 1.92   3 2.10
 214  0.988  0.625  0.988-   4 2.02  20 2.07
 215  0.017  0.628  0.483-   5 1.96  21 2.03
 216  0.498  0.124  0.990-   6 2.03  22 2.08
 217  0.485  0.627  0.994-  24 2.02   8 2.06
 218  0.515  0.627  0.490-  25 1.98   9 2.01
 219  0.987  0.127  0.257-  10 1.96  26 2.04
 220  0.991  0.623  0.265-  28 1.96  12 2.02
 221  0.020  0.625  0.766-  13 1.99  29 1.99
 222  0.492  0.626  0.262-  32 1.94  16 2.01
 223  0.991  0.374  0.512-  19 1.95   5 2.03
 224  0.484  0.371  0.512-  23 1.98   9 2.00
 225  0.482  0.880  0.508-  25 1.98   7 2.04
 226  0.987  0.376  0.738-  13 1.93  27 2.08
 227  0.002  0.875  0.241-  10 1.97  28 1.98
 228  0.988  0.875  0.738-  29 1.94  11 2.07
 229  0.509  0.371  0.238-  16 1.96  30 2.02
 230  0.490  0.374  0.739-  31 2.03  17 2.04
 231  0.502  0.876  0.238-  32 1.94  14 2.06
 232  0.492  0.876  0.744-  15 2.02  33 2.08
 233  0.253  0.124  0.996-  34 1.97  50 1.97
 234  0.239  0.124  0.498-  35 2.03  51 2.06
 235  0.238  0.627  0.505-  53 2.01  37 2.06
 236  0.753  0.126  0.004-  54 1.94  38 1.96
 237  0.765  0.626  0.005-  56 1.95  40 1.96
 238  0.731  0.630  0.501-  57 1.92  41 2.05
 239  0.263  0.126  0.251-  42 1.94  58 2.04
 240  0.239  0.125  0.754-  43 1.97  59 1.99
 241  0.256  0.623  0.240-  60 1.94  44 2.04
 242  0.764  0.126  0.245-  62 1.95  46 1.96
 243  0.754  0.625  0.245-  64 1.94  48 1.96
 244  0.731  0.626  0.751-  65 1.97  49 2.00
 245  0.243  0.376  0.995-  50 1.94  36 2.04
 246  0.238  0.873  0.000-  34 1.93  52 2.04
 247  0.741  0.375  0.987-  54 1.94  40 1.96
 248  0.768  0.368  0.491-  55 1.96  41 2.03
 249  0.736  0.875  0.006-  56 1.95  38 1.96
 250  0.769  0.878  0.502-  57 1.96  39 2.04
 251  0.265  0.377  0.757-  59 1.94  45 2.04
 252  0.246  0.875  0.253-  42 1.97  60 1.98
 253  0.261  0.874  0.749-  43 1.93  61 2.05
 254  0.740  0.374  0.264-  62 1.94  48 1.96
 255  0.766  0.375  0.755-  49 1.94  63 2.06
 256  0.744  0.876  0.245-  46 1.95  64 1.95
 257  0.764  0.876  0.746-  65 1.94  47 2.05
 

IMPORTANT INFORMATION: All symmetrisations will be switched off!
NOSYMM: (Re-)initialisation of all symmetry stuff for point group C_1.

 
 
 KPOINTS: Title                                   

Automatic generation of k-mesh.
Space group operators:
 irot       det(A)        alpha          n_x          n_y          n_z        tau_x        tau_y        tau_z
    1     1.000000     0.000001     1.000000     0.000000     0.000000     0.000000     0.000000     0.000000
 
 Subroutine IBZKPT returns following result:
 ===========================================
 
 Found      4 irreducible k-points:
 
 Following reciprocal coordinates:
            Coordinates               Weight
  0.250000  0.250000  0.250000      2.000000
 -0.250000  0.250000  0.250000      2.000000
  0.250000 -0.250000  0.250000      2.000000
 -0.250000 -0.250000  0.250000      2.000000
 
 Following cartesian coordinates:
            Coordinates               Weight
  0.016206  0.016206  0.016206      2.000000
 -0.016206  0.016206  0.016206      2.000000
  0.016206 -0.016206  0.016206      2.000000
 -0.016206 -0.016206  0.016206      2.000000
 


--------------------------------------------------------------------------------------------------------




 Dimension of arrays:
   k-points           NKPTS =      4   k-points in BZ     NKDIM =      4   number of bands    NBANDS=   1164
   number of dos      NEDOS =   3001   number of ions     NIONS =    257
   non local maximal  LDIM  =      6   non local SUM 2l+1 LMDIM =     18
   total plane-waves  NPLWV = ******
   max r-space proj   IRMAX =   7595   max aug-charges    IRDMAX= 146383
   dimension x,y,z NGX =   120 NGY =  120 NGZ =  120
   dimension x,y,z NGXF=   240 NGYF=  240 NGZF=  240
   support grid    NGXF=   480 NGYF=  480 NGZF=  480
   ions per type =               1  64  64 128
   NGX,Y,Z   is equivalent  to a cutoff of  12.93, 12.93, 12.93 a.u.
   NGXF,Y,Z  is equivalent  to a cutoff of  25.86, 25.86, 25.86 a.u.

 SYSTEM =  LTO                                     
 POSCAR =  config 59                               

 Startparameter for this run:
   NWRITE =      2    write-flag & timer
   PREC   = accura    normal or accurate (medium, high low for compatibility)
   ISTART =      1    job   : 0-new  1-cont  2-samecut
   ICHARG =      0    charge: 1-file 2-atom 10-const
   ISPIN  =      2    spin polarized calculation?
   LNONCOLLINEAR =      F non collinear calculations
   LSORBIT =      F    spin-orbit coupling
   INIWAV =      1    electr: 0-lowe 1-rand  2-diag
   LASPH  =      T    aspherical Exc in radial PAW
   METAGGA=      F    non-selfconsistent MetaGGA calc.

 Electronic Relaxation 1
   ENCUT  =  500.0 eV  36.75 Ry    6.06 a.u.  28.13 28.13 28.13*2*pi/ulx,y,z
   ENINI  =  500.0     initial cutoff
   ENAUG  =  628.9 eV  augmentation charge cutoff
   NELM   =     60;   NELMIN=  2; NELMDL=  0     # of ELM steps 
   EDIFF  = 0.1E-05   stopping-criterion for ELM
   LREAL  =      T    real-space projection
   NLSPLINE    = F    spline interpolate recip. space projectors
   LCOMPAT=      F    compatible to vasp.4.4
   GGA_COMPAT  = T    GGA compatible to vasp.4.4-vasp.4.6
   LMAXPAW     = -100 max onsite density
   LMAXMIX     =    4 max onsite mixed and CHGCAR
   VOSKOWN=      0    Vosko Wilk Nusair interpolation
   ROPT   =   -0.00010  -0.00010  -0.00010  -0.00010
 Ionic relaxation
   EDIFFG = -.5E-01   stopping-criterion for IOM
   NSW    =    100    number of steps for IOM
   NBLOCK =      1;   KBLOCK =    100    inner block; outer block 
   IBRION =      1    ionic relax: 0-MD 1-quasi-New 2-CG
   NFREE  =      0    steps in history (QN), initial steepest desc. (CG)
   ISIF   =      2    stress and relaxation
   IWAVPR =     11    prediction:  0-non 1-charg 2-wave 3-comb
   ISYM   =      0    0-nonsym 1-usesym 2-fastsym
   LCORR  =      T    Harris-Foulkes like correction to forces

   POTIM  = 0.5000    time-step for ionic-motion
   TEIN   =    0.0    initial temperature
   TEBEG  =    0.0;   TEEND  =   0.0 temperature during run
   SMASS  =  -3.00    Nose mass-parameter (am)
   estimated Nose-frequenzy (Omega)   =  0.10E-29 period in steps =****** mass=  -0.544E-26a.u.
   SCALEE = 1.0000    scale energy and forces
   NPACO  =    256;   APACO  = 16.0  distance and # of slots for P.C.
   PSTRESS=    0.0 pullay stress

  Mass of Ions in am
   POMASS =   7.01 47.88 16.00 19.00
  Ionic Valenz
   ZVAL   =   3.00 10.00  6.00  7.00
  Atomic Wigner-Seitz radii
   RWIGS  =  -1.00 -1.00 -1.00 -1.00
  virtual crystal weights 
   VCA    =   1.00  1.00  1.00  1.00
   NELECT =    1923.0000    total number of electrons
   NUPDOWN=       1.0000    fix difference up-down

 DOS related values:
   EMIN   =  10.00;   EMAX   =-10.00  energy-range for DOS
   EFERMI =   0.00
   ISMEAR =     0;   SIGMA  =   0.01  broadening in eV -4-tet -1-fermi 0-gaus

 Electronic relaxation 2 (details)
   IALGO  =     38    algorithm
   LDIAG  =      T    sub-space diagonalisation (order eigenvalues)
   LSUBROT=      F    optimize rotation matrix (better conditioning)
   TURBO    =      0    0=normal 1=particle mesh
   IRESTART =      0    0=no restart 2=restart with 2 vectors
   NREBOOT  =      0    no. of reboots
   NMIN     =      0    reboot dimension
   EREF     =   0.00    reference energy to select bands
   IMIX   =      4    mixing-type and parameters
     AMIX     =   0.40;   BMIX     =  1.00
     AMIX_MAG =   1.60;   BMIX_MAG =  1.00
     AMIN     =   0.10
     WC   =   100.;   INIMIX=   1;  MIXPRE=   1;  MAXMIX= -45

 Intra band minimization:
   WEIMIN = 0.0010     energy-eigenvalue tresh-hold
   EBREAK =  0.21E-09  absolut break condition
   DEPER  =   0.30     relativ break condition  

   TIME   =   0.40     timestep for ELM

  volume/ion in A,a.u.               =      14.28        96.39
  Fermi-wavevector in a.u.,A,eV,Ry     =   1.319690  2.493853 23.695660  1.741582
  Thomas-Fermi vector in A             =   2.449570
 
 Write flags
   LWAVE        =      T    write WAVECAR
   LDOWNSAMPLE  =      F    k-point downsampling of WAVECAR
   LCHARG       =      T    write CHGCAR
   LVTOT        =      F    write LOCPOT, total local potential
   LVHAR        =      F    write LOCPOT, Hartree potential only
   LELF         =      F    write electronic localiz. function (ELF)
   LORBIT       =     11    0 simple, 1 ext, 2 COOP (PROOUT), +10 PAW based schemes


 Dipole corrections
   LMONO  =      F    monopole corrections only (constant potential shift)
   LDIPOL =      F    correct potential (dipole corrections)
   IDIPOL =      0    1-x, 2-y, 3-z, 4-all directions 
   EPSILON=  1.0000000 bulk dielectric constant

 LDA+U is selected, type is set to LDAUTYPE =  2
   angular momentum for each species LDAUL =    -1    2   -1   -1
   U (eV)           for each species LDAUU =   0.0  4.2  0.0  0.0
   J (eV)           for each species LDAUJ =   0.0  0.0  0.0  0.0
 Exchange correlation treatment:
   GGA     =    PS    GGA type
   LEXCH   =    14    internal setting for exchange type
   VOSKOWN=      0    Vosko Wilk Nusair interpolation
   LHFCALC =     F    Hartree Fock is set to
   LHFONE  =     F    Hartree Fock one center treatment
   AEXX    =    0.0000 exact exchange contribution

 Linear response parameters
   LEPSILON=     F    determine dielectric tensor
   LRPA    =     F    only Hartree local field effects (RPA)
   LNABLA  =     F    use nabla operator in PAW spheres
   LVEL    =     F    velocity operator in full k-point grid
   LINTERFAST=   F  fast interpolation
   KINTER  =     0    interpolate to denser k-point grid
   CSHIFT  =0.1000    complex shift for real part using Kramers Kronig
   OMEGAMAX=  -1.0    maximum frequency
   DEG_THRESHOLD= 0.2000000E-02 threshold for treating states as degnerate
   RTIME   =   -0.100 relaxation time in fs
  (WPLASMAI=    0.000 imaginary part of plasma frequency in eV, 0.658/RTIME)
   DFIELD  = 0.0000000 0.0000000 0.0000000 field for delta impulse in time
 
 Orbital magnetization related:
   ORBITALMAG=     F  switch on orbital magnetization
   LCHIMAG   =     F  perturbation theory with respect to B field
   DQ        =  0.001000  dq finite difference perturbation B field
   LLRAUG    =     F  two centre corrections for induced B field



--------------------------------------------------------------------------------------------------------


 quasi-Newton-method for relaxation of ions
 charge density and potential will be updated during run
 spin polarized calculation
 Variant of blocked Davidson
 Davidson routine will perform the subspace rotation
 perform sub-space diagonalisation
    after iterative eigenvector-optimisation
 modified Broyden-mixing scheme, WC =      100.0
 initial mixing is a Kerker type mixing with AMIX =  0.4000 and BMIX =      1.0000
 Hartree-type preconditioning will be used
 using additional bands          202
 real space projection scheme for non local part
 use partial core corrections
 calculate Harris-corrections to forces 
   (improved forces if not selfconsistent)
 use gradient corrections 
 use of overlap-Matrix (Vanderbilt PP)
 Gauss-broadening in eV      SIGMA  =   0.01


--------------------------------------------------------------------------------------------------------


  energy-cutoff  :      500.00
  volume of cell :     3671.03
      direct lattice vectors                 reciprocal lattice vectors
    15.426331000  0.000000000  0.000000000     0.064824228  0.000000000  0.000000000
     0.000000000 15.426331000  0.000000000     0.000000000  0.064824228  0.000000000
     0.000000000  0.000000000 15.426331000     0.000000000  0.000000000  0.064824228

  length of vectors
    15.426331000 15.426331000 15.426331000     0.064824228  0.064824228  0.064824228


 
 old parameters found on file WAVECAR:
  energy-cutoff  :      500.00
  volume of cell :     3671.03
      direct lattice vectors                 reciprocal lattice vectors
    15.426331000  0.000000000  0.000000000     0.064824228  0.000000000  0.000000000
     0.000000000 15.426331000  0.000000000     0.000000000  0.064824228  0.000000000
     0.000000000  0.000000000 15.426331000     0.000000000  0.000000000  0.064824228

  length of vectors

 
 k-points in units of 2pi/SCALE and weight: Title                                   
   0.01620606  0.01620606  0.01620606       0.250
  -0.01620606  0.01620606  0.01620606       0.250
   0.01620606 -0.01620606  0.01620606       0.250
  -0.01620606 -0.01620606  0.01620606       0.250
 
 k-points in reciprocal lattice and weights: Title                                   
   0.25000000  0.25000000  0.25000000       0.250
  -0.25000000  0.25000000  0.25000000       0.250
   0.25000000 -0.25000000  0.25000000       0.250
  -0.25000000 -0.25000000  0.25000000       0.250
 
 position of ions in fractional coordinates (direct lattice) 
   0.87408716  0.56359826  0.62288664
   0.99540629  0.99390960  0.99466543
   0.99892721  0.99042480  0.49412509
   0.00585480  0.49530239  0.99833890
   0.99573967  0.50499228  0.50466511
   0.49410010  0.99343510  0.00010242
   0.50195152  0.00970597  0.49847458
   0.50395586  0.49529504  0.99624270
   0.49129856  0.49958928  0.49544223
   0.00631707  0.00219807  0.25571009
   0.00347904  0.00700565  0.75754435
   0.99334736  0.49251235  0.24991817
   0.99513576  0.50117251  0.74323060
   0.50483101  0.00889361  0.25051161
   0.49387494  0.00689669  0.75253787
   0.49198500  0.49582271  0.25737001
   0.50208111  0.50462678  0.75888123
   0.99575808  0.25793956  0.00249915
   0.99915391  0.24928772  0.49098037
   0.99773244  0.75729947  0.00721788
   0.99700936  0.75627315  0.50661771
   0.49537347  0.25844877  0.00190161
   0.50984701  0.24654552  0.49785349
   0.50678278  0.75638983  0.99955386
   0.50712710  0.75389890  0.50898326
   0.99910663  0.25892898  0.25469671
   0.00894367  0.24324881  0.74893682
   0.00564792  0.74681436  0.24331436
   0.99271989  0.74968545  0.74318935
   0.50731813  0.24092390  0.25210547
   0.50886109  0.24422927  0.75146650
   0.50556156  0.75099877  0.25214230
   0.50328815  0.74195915  0.74413016
   0.25624866  0.99746721  0.00548025
   0.25164115  0.99336330  0.50600989
   0.24337566  0.50818100  0.99776894
   0.25562162  0.49434610  0.50683420
   0.75660143  0.99985512  0.99374095
   0.74967854  0.00855330  0.49440245
   0.74089531  0.50118474  0.00427165
   0.75061909  0.49865226  0.50032327
   0.24405390  0.00209547  0.24307803
   0.25897906  0.99891621  0.74396146
   0.25456879  0.49125520  0.25179691
   0.24735332  0.50663538  0.74120065
   0.74330063  0.00127337  0.25559307
   0.74734601  0.00736425  0.75605553
   0.75507773  0.49829516  0.24079771
   0.75697915  0.49962318  0.74387953
   0.25726709  0.25174083  0.00626495
   0.25460561  0.25685588  0.50528620
   0.25154985  0.74207262  0.99384446
   0.25256555  0.75559720  0.49299339
   0.75714070  0.25188758  0.00756047
   0.74299550  0.24386724  0.49684949
   0.74099350  0.74934853  0.99454606
   0.74053268  0.75438733  0.49400296
   0.25036858  0.25741862  0.24349774
   0.24468251  0.25306222  0.74371282
   0.24268073  0.74699688  0.25613295
   0.24716859  0.74183169  0.75654484
   0.74098491  0.25032856  0.24229038
   0.74445998  0.24309750  0.75112804
   0.74454425  0.74989007  0.25720867
   0.75825096  0.75111171  0.75765114
   0.00438281  0.51807745  0.62632456
   0.00018081  0.99430431  0.37595271
   0.00418051  0.99239622  0.87283875
   0.49611363  0.48899233  0.37527860
   0.49342773  0.49207144  0.87471668
   0.99952841  0.73806243  0.12585619
   0.00230676  0.73583723  0.62445782
   0.50430705  0.74523119  0.62478920
   0.99006193  0.25899333  0.37632800
   0.25685269  0.00000666  0.12498107
   0.25937898  0.00236885  0.62489302
   0.23990575  0.49417303  0.62626783
   0.74634743  0.49062904  0.12455718
   0.75381838  0.50438124  0.62752648
   0.74591930  0.00100412  0.37562370
   0.74227093  0.99999507  0.87346233
   0.24124140  0.25084343  0.12557153
   0.24786350  0.25108829  0.62499433
   0.73752324  0.25884100  0.12609187
   0.25470282  0.74512665  0.37486323
   0.25250266  0.75014686  0.87518071
   0.75310574  0.75208728  0.37409816
   0.75193475  0.75259032  0.87603599
   0.12400041  0.50870884  0.99184808
   0.62520844  0.51227252  0.99575374
   0.12457532  0.00792043  0.24771252
   0.62369626  0.00794452  0.24653863
   0.62500905  0.26453425  0.48841512
   0.62382537  0.73689564  0.99945939
   0.62377440  0.77188278  0.49508865
   0.12574912  0.26326237  0.75450367
   0.12407751  0.74443299  0.25376937
   0.62483826  0.23933292  0.26497432
   0.62681321  0.26270602  0.75495387
   0.62164288  0.74637759  0.25312550
   0.37571469  0.99309229  0.99068987
   0.37523186  0.51260669  0.50633711
   0.87262677  0.99437945  0.99651695
   0.88111319  0.51736500  0.50539175
   0.37690763  0.00935204  0.75963172
   0.37326825  0.49090386  0.24562251
   0.87519309  0.49146812  0.24754495
   0.87710314  0.52146110  0.74449094
   0.37592282  0.25386580  0.00904002
   0.87424606  0.25549446  0.00992362
   0.87501233  0.73253964  0.74620113
   0.51677728  0.12331220  0.48743041
   0.01076321  0.12634890  0.75602633
   0.48883671  0.12483380  0.26716647
   0.51263292  0.12475021  0.75669623
   0.51281944  0.62577617  0.75713673
   0.00619937  0.37537499  0.01197079
   0.00718928  0.87426621  0.00909683
   0.98413040  0.87438327  0.50918666
   0.50819897  0.37418463  0.01185651
   0.50908968  0.87497773  0.01153923
   0.01071531  0.37370132  0.23840871
   0.25993160  0.62495242  0.00443060
   0.73407073  0.12547785  0.50416609
   0.23640103  0.62493114  0.74856703
   0.74049261  0.12557284  0.74428501
   0.26230995  0.37297575  0.49347252
   0.26304708  0.87582158  0.49814269
   0.23804638  0.37393025  0.25770311
   0.99519541  0.01044108  0.12648434
   0.99889307  0.00906921  0.62332578
   0.00380715  0.51583727  0.12523513
   0.49001084  0.01396235  0.12629246
   0.49381802  0.00828537  0.62271318
   0.50347570  0.51157168  0.12751015
   0.50782665  0.50606115  0.62540349
   0.99999771  0.48601800  0.37559301
   0.99279558  0.48828977  0.87320829
   0.50715762  0.98232140  0.37651545
   0.51625168  0.98943488  0.87495331
   0.01017198  0.23639522  0.12751847
   0.00668053  0.24473264  0.62148084
   0.51272866  0.23343356  0.12687621
   0.50757804  0.24036680  0.62290868
   0.49724187  0.73852825  0.12698664
   0.99105464  0.26201479  0.87439675
   0.99213370  0.75839544  0.37559836
   0.99764649  0.75812034  0.87385542
   0.48632022  0.26641035  0.37546752
   0.49322204  0.26029979  0.87475900
   0.49076202  0.76255451  0.37563876
   0.49564470  0.76093194  0.87409104
   0.24030642  0.49285553  0.12482379
   0.75177697  0.00119732  0.12606866
   0.75267808  0.99566371  0.62315170
   0.24779382  0.00278265  0.37529614
   0.24097537  0.99689009  0.87387082
   0.25048337  0.51133985  0.37534446
   0.26033409  0.50008238  0.87365617
   0.74963896  0.50709835  0.37188508
   0.75614188  0.50572172  0.87505218
   0.24837607  0.75564156  0.12503088
   0.24793027  0.75282760  0.62515828
   0.74639615  0.25977204  0.62309565
   0.74864980  0.75065101  0.12582417
   0.74671887  0.75005548  0.62501797
   0.25911759  0.24209637  0.37420788
   0.25773736  0.24903242  0.87500341
   0.76574618  0.24213728  0.37331284
   0.75925633  0.24568870  0.87590767
   0.12566499  0.00815980  0.00461922
   0.12503355  0.98865501  0.50461240
   0.12529966  0.48906875  0.49245245
   0.62429549  0.00887752  0.00940603
   0.62390124  0.97979452  0.50732845
   0.61973151  0.48223964  0.49875500
   0.12746734  0.98690601  0.74197324
   0.12328957  0.51113280  0.25337853
   0.12373259  0.48431139  0.76226526
   0.62404393  0.98513291  0.73759841
   0.62443147  0.50587534  0.25262899
   0.62793272  0.48499303  0.75603774
   0.12472791  0.24406796  0.99081046
   0.12449526  0.25908827  0.49177585
   0.12407008  0.73871404  0.99764919
   0.12425123  0.76394400  0.49633202
   0.62603932  0.24267560  0.98943033
   0.12395608  0.23445247  0.26117413
   0.12319102  0.76583465  0.75189216
   0.62696195  0.76553721  0.75294036
   0.37804696  0.01655856  0.48981967
   0.37298653  0.49089598  0.00915808
   0.87502614  0.01930483  0.50069352
   0.87455208  0.49292396  0.00289109
   0.37641143  0.99032257  0.25892497
   0.37546418  0.51067927  0.74123492
   0.87297474  0.99340088  0.25075543
   0.87491359  0.00809554  0.74835474
   0.37989677  0.23265146  0.50484486
   0.37566313  0.76200854  0.00385980
   0.37748360  0.73681301  0.50344097
   0.87578050  0.23507412  0.50934399
   0.87142799  0.76052310  0.00284552
   0.87240997  0.73178228  0.50545002
   0.37782932  0.26076043  0.24059384
   0.37762763  0.24101850  0.74531405
   0.37573700  0.75467461  0.24578815
   0.37546516  0.74114713  0.74727389
   0.87347868  0.26010291  0.24000111
   0.87576271  0.24403944  0.74213906
   0.87269682  0.75465786  0.24712957
   0.99601136  0.12702118  0.99230231
   0.01290113  0.12556962  0.49456010
   0.98804123  0.62490803  0.98832118
   0.01734627  0.62819289  0.48318230
   0.49754029  0.12427786  0.99010263
   0.48515400  0.62742294  0.99395920
   0.51468508  0.62744102  0.48955308
   0.98700253  0.12744605  0.25732951
   0.99103390  0.62265566  0.26468241
   0.02003051  0.62545397  0.76569511
   0.49244786  0.62604371  0.26195080
   0.99116373  0.37398460  0.51184160
   0.48395732  0.37112192  0.51229855
   0.48184123  0.87958050  0.50814779
   0.98735409  0.37613801  0.73803264
   0.00152098  0.87527097  0.24134756
   0.98782534  0.87527279  0.73785628
   0.50943219  0.37127022  0.23758354
   0.49047836  0.37411107  0.73893921
   0.50249859  0.87595715  0.23843620
   0.49191554  0.87611193  0.74361778
   0.25329110  0.12446732  0.99565441
   0.23936241  0.12411701  0.49823138
   0.23783114  0.62694118  0.50544796
   0.75251098  0.12623636  0.00397246
   0.76509424  0.62577413  0.00498486
   0.73116626  0.63041535  0.50097406
   0.26306997  0.12606621  0.25087808
   0.23932404  0.12486835  0.75435152
   0.25613197  0.62312458  0.24035525
   0.76380860  0.12609546  0.24521862
   0.75445684  0.62509778  0.24464649
   0.73110323  0.62644380  0.75129433
   0.24283122  0.37597880  0.99523983
   0.23804104  0.87346985  0.00035198
   0.74053562  0.37516617  0.98709289
   0.76844258  0.36834523  0.49142950
   0.73640682  0.87511475  0.00585412
   0.76913459  0.87765742  0.50195626
   0.26511094  0.37667939  0.75676111
   0.24638971  0.87510946  0.25299541
   0.26114790  0.87359398  0.74862862
   0.74035284  0.37408506  0.26439409
   0.76597363  0.37502677  0.75526593
   0.74434947  0.87553692  0.24529439
   0.76353070  0.87599615  0.74611078
 
 position of ions in cartesian coordinates  (Angst):
  13.48395778  8.69425330  9.60885547
  15.35546692 15.33237849 15.34403820
  15.40978180 15.27862081  7.62253719
   0.09031801  7.64069856 15.40070635
  15.36060970  7.79017811  7.78513105
   7.62215162 15.32505872  0.00157998
   7.74327037  0.14972752  7.68963393
   7.77418987  7.64058525 15.36836958
   7.57893425  7.70682956  7.64285583
   0.09744924  0.03390813  3.94466842
   0.05366884  0.10807146 11.68612994
  15.32370522  7.59765847  3.85532037
  15.35129363  7.73125306 11.46532120
   7.78769021  0.13719578  3.86447501
   7.61867824  0.10639067 11.60889828
   7.58952346  7.64872526  3.97027502
   7.74526936  7.78453981 11.70675299
  15.36089368  3.97906099  0.03855268
  15.41327900  3.84559485  7.57402574
  15.39135089 11.68235231  0.11134545
  15.38019645 11.66651999  7.81525256
   7.64179512  3.98691624  0.02933493
   7.86506872  3.80329281  7.68005266
   7.81779885 11.66831988 15.41944868
   7.82311058 11.62989391  7.85174427
  15.41254954  3.99432416  3.92903580
   0.13796799  3.75243661 11.55334734
   0.08712662 11.52060556  3.75344790
  15.31402564 11.56489596 11.46468484
   7.82605735  3.71657177  3.88906240
   7.84985960  3.76756158 11.59237094
   7.79895996 11.58515565  3.88963057
   7.76388960 11.44570749 11.47919810
   3.95297666 15.38725942  0.08454014
   3.88189968 15.32395104  7.80587603
   3.75439348  7.83936825 15.39191396
   3.94330372  7.62594651  7.81859211
  11.67158417 15.42409608 15.32977678
  11.56478932  0.13194597  7.62681583
  11.42929627  7.73144167  0.06589595
  11.57929850  7.69237477  7.71815243
   3.76485619  0.03232546  3.74980219
   3.99509671 15.40961203 11.47659566
   3.92706249  7.57826533  3.88430243
   3.81575414  7.81552506 11.43400651
  11.46640159  0.01964340  3.94286334
  11.52880699  0.11360336 11.66316289
  11.64807896  7.68686603  3.71462517
  11.67741095  7.70735254 11.47533189
   3.96868727  3.88343734  0.09664519
   3.92763040  3.96234388  7.79471222
   3.88049120 11.44745779 15.33137355
   3.89615978 11.65609247  7.60507921
  11.67990307  3.88570119  0.11663032
  11.46169445  3.76197677  7.66456475
  11.43081093 11.55969843 15.34219670
  11.42370230 11.63742862  7.62065311
   3.86226857  3.97102485  3.75627676
   3.77455346  3.90382163 11.47276017
   3.74367331 11.52342109  3.95119169
   3.81290446 11.44374114 11.67071107
  11.43067841  3.86165128  3.73765164
  11.48428610  3.75010247 11.58714984
  11.48558600 11.56805244  3.96778604
  11.69703035 11.58689786 11.68777725
   0.06761061  7.99203417  9.66189005
   0.00278931 15.33846740  5.79957096
   0.06448998 15.30903257 13.46469950
   7.65321306  7.54335761  5.78917185
   7.61177955  7.59085698 13.49366901
  15.41905606 11.38559531  1.94149932
   0.03558491 11.35126870  9.63309305
   7.77960749 11.49618301  9.63820493
  15.27302309  3.99531678  5.80536028
   3.96229465  0.00010267  1.92799931
   4.00126593  0.03654263  9.63980654
   3.70086557  7.62327680  9.66101476
  11.51340246  7.56860599  1.92146033
  11.62865187  7.78075189  9.68043121
  11.50679807  0.01548981  5.79449547
  11.45051699 15.42625488 13.47431895
   3.72146965  3.86959382  1.93710799
   3.82362447  3.87337103  9.64136938
  11.37727766  3.99296695  1.94513500
   3.92912994 11.49457042  5.78276420
   3.89518967 11.57201377 13.50082732
  11.61765840 11.60194726  5.77096206
  11.59959437 11.60970733 13.51402120
   1.91287133  7.84751088 15.30057685
   9.64467226  7.90248547 15.36082672
   1.92174007  0.12218324  3.82129537
   9.62134499  0.12255478  3.80318645
   9.64159644  4.08079297  7.53445331
   9.62333661 11.36759611 15.41799138
   9.62255038 11.90731925  7.63740141
   1.93984761  4.06117240 11.63922336
   1.91406077 11.48386976  3.91473028
   9.63896180  3.69202889  4.08758154
   9.66942799  4.05258996 11.64616822
   9.58966884 11.51386770  3.90479776
   5.79589922 15.31977039 15.28270978
   5.78845087  7.90764049  7.81092386
  13.46142947 15.33962647 15.37260036
  13.59234370  7.98104376  7.79634036
   5.81430190  0.14426762 11.71833028
   5.75815954  7.57284536  3.78905420
  13.50101836  7.58154983  3.81871040
  13.53048329  8.04423149 11.48476367
   5.79910991  3.91621785  0.13945434
  13.48640902  3.94134211  0.15308511
  13.49822986 11.30039891 11.51114562
   7.97197741  1.90225474  7.51926286
   0.16603686  1.94910003 11.66271235
   7.54095693  1.92572750  4.12139847
   7.90804518  1.92443807 11.67304650
   7.91092235  9.65343028 11.67984187
   0.09563353  5.79065885  0.18466539
   0.11090420 13.48671997  0.14033073
  15.18152127 13.48852568  7.85488189
   7.83964546  5.77229602  0.18290251
   7.85338591 13.49769606  0.17800804
   0.16529789  5.76484033  3.67777172
   4.00979096  9.64072285  0.06834798
  11.32401799  1.93566284  7.77743299
   3.64680056  9.64039456 11.54764276
  11.42308415  1.93712821 11.48158695
   4.04648015  5.75364738  7.61247047
   4.05785139 13.51071366  7.68451402
   3.67218221  5.76837183  3.97541355
  15.35221380  0.16106754  1.95118935
  15.40925506  0.13990471  9.61562987
   0.05873037  7.95747644  1.93191864
   7.55906939  0.21538787  1.94822931
   7.61780025  0.12781290  9.60617968
   7.76678275  7.89167413  1.96701372
   7.83390195  7.80666682  9.64768117
  15.42629564  7.49747461  5.79402204
  15.31519328  7.53251956 13.47040012
   7.82358132 15.15361514  5.80825192
   7.96386929 15.26334991 13.49731932
   0.15691626  3.64671086  1.96714218
   0.10305605  3.77532673  9.58716908
   7.90952195  3.60102339  1.95723437
   7.83006682  3.70797782  9.60919546
   7.67061770 11.39278129  1.95893802
  15.28833694  4.04192684 13.48873371
  15.30498281 11.69925912  5.79410468
  15.39002496 11.69501533 13.48038300
   7.50213667  4.10973424  5.79208627
   7.60860652  4.01547066 13.49432189
   7.57065738 11.76341828  5.79472782
   7.64597922 11.73838791 13.48401774
   3.70704632  7.60295250  1.92557312
  11.59716032  0.01847027  1.94477686
  11.61106126 15.35943798  9.61294446
   3.82254948  0.04292601  5.78944251
   3.71736586 15.37835643 13.48062048
   3.86403932  7.88809778  5.79018792
   4.01599989  7.71443632 13.47730927
  11.56417875  7.82266701  5.73682232
  11.66449496  7.80143060 13.49884453
   3.83153142 11.65677687  1.92876777
   3.82465440 11.61336779  9.64389853
  11.51415399  4.00732947  9.61207981
  11.54891964 11.57979101  1.94100523
  11.51913243 11.57060410  9.64173406
   3.99723370  3.73465876  5.77265455
   3.97594187  3.84165655 13.49809228
  11.81265401  3.73528978  5.75884749
  11.71253943  3.79007528 13.51204164
   1.93854968  0.12587578  0.07125768
   1.92880892 15.25131943  7.78431790
   1.93291407  7.54453646  7.59673457
   9.63058886  0.13694759  0.14510046
   9.62450705 15.11463454  7.82621665
   9.56018348  7.43918835  7.69395968
   1.96635342 15.22433873 11.44592479
   1.90190565  7.88490368  3.90870100
   1.90873984  7.47114787 11.75895617
   9.62670827 15.19698636 11.37843726
   9.63268651  7.80380044  3.89713837
   9.68669795  7.48166297 11.66288836
   1.92409407  3.76507312 15.28457013
   1.92050506  3.99678140  7.58629712
   1.91394614 11.39564726 15.39006663
   1.91674057 11.78485303  7.65658197
   9.65748972  3.74359412 15.26327975
   1.91218756  3.61674144  4.02895853
   1.90038550 11.81401885 11.59893736
   9.67172253 11.80943032 11.61510727
   5.83187757  0.25543780  7.55612034
   5.75381370  7.57272384  0.14127559
  13.49844283  0.29780269  7.72386392
  13.49112990  7.60400818  0.04459889
   5.80664739 15.27704381  3.99426222
   5.79203464  7.87790745 11.43453521
  13.46679723 15.32453075  3.86823622
  13.49670666  0.12488444 11.54436798
   5.86041328  3.58895836  7.78790384
   5.79510379 11.75499600  0.05954252
   5.82318692 11.36632133  7.76624711
  13.51007991  3.62633116  7.85730891
  13.44293667 11.73208106  0.04389594
  13.45808502 11.28871560  7.79723927
   5.82852018  4.02257663  3.71148015
   5.82540882  3.71803115 11.49746116
   5.79624337 11.64186037  3.79160930
   5.79204978 11.43318092 11.52769434
  13.47457125  4.01243351  3.70233652
  13.50980551  3.76463315 11.44848275
  13.46251001 11.64160193  3.81230261
  15.36480091  1.95947075 15.30758387
   0.19901712  1.93707855  7.62924780
  15.24185109  9.64003814 15.24616959
   0.26758923  9.69071150  7.45373007
   7.67522115  1.91715142 15.27365087
   7.48414624  9.67883393 15.33314364
   7.93970237  9.67911279  7.55200788
  15.22582778  1.96602494  3.96965021
  15.28801692  9.60529238  4.08307843
   0.30899723  9.64845993 11.81186624
   7.59666361  9.65755746  4.04093967
  15.29001972  5.76921020  7.89583801
   7.46568576  5.72504951  7.90288694
   7.43304227 13.56869994  7.83885605
  15.23125095  5.80242939 11.38513579
   0.02346318 13.50221974  3.72310728
  15.23852072 13.50224774 11.38241513
   7.85866963  5.72733725  3.66504239
   7.56628149  5.77116125 11.39912087
   7.75170965 13.51280499  3.67819570
   7.58845196 13.51519268 11.47129400
   3.90735241  1.92007405 15.35929454
   3.69248380  1.91467008  7.68588225
   3.66886187  9.67140219  7.79720751
  11.60848343  1.94736391  0.06128045
  11.80259692  9.65339892  0.07689817
  11.27921269  9.72499586  7.72819163
   4.05820438  1.94473914  3.87012825
   3.69189187  1.92626046 11.63687619
   3.95117654  9.61252595  3.70779964
  11.78276424  1.94519030  3.78282359
  11.63850090  9.64296521  3.77399779
  11.27824044  9.66372943 11.58971496
   3.74599475  5.79997347 15.35289906
   3.67209991 13.47443498  0.00542981
  11.42374762  5.78743751 15.22722159
  11.85424964  5.68221550  7.58095407
  11.36005535 13.49980986  0.09030763
  11.86492478 13.53903380  7.74334343
   4.08968911  5.81078090 11.67404732
   3.80088920 13.49972812  3.90279100
   4.02855389 13.47634984 11.54859291
  11.42092803  5.77075993  4.07863068
  11.81616277  5.78528708 11.65098229
  11.48258135 13.50632234  3.78399244
  11.77847731 13.51340651 11.50975192
 


--------------------------------------------------------------------------------------------------------


 k-point  1 :   0.2500 0.2500 0.2500  plane waves:   93161
 k-point  2 :  -0.2500 0.2500 0.2500  plane waves:   93161
 k-point  3 :   0.2500-0.2500 0.2500  plane waves:   93161
 k-point  4 :  -0.2500-0.2500 0.2500  plane waves:   93161

 maximum and minimum number of plane-waves per node :     11686    11606

 maximum number of plane-waves:     93161
 maximum index in each direction: 
   IXMAX=   28   IYMAX=   28   IZMAX=   27
   IXMIN=  -28   IYMIN=  -28   IZMIN=  -28


 real space projection operators:
  total allocation   :     105592.70 KBytes
  max/ min on nodes  :      13246.95      13159.41


 parallel 3D FFT for wavefunctions:
    minimum data exchange during FFTs selected (reduces bandwidth)
 parallel 3D FFT for charge:
    minimum data exchange during FFTs selected (reduces bandwidth)


 total amount of memory used by VASP MPI-rank0   291499. kBytes
=======================================================================

   base      :      30000. kBytes
   nonlr-proj:      49464. kBytes
   fftplans  :      27976. kBytes
   grid      :      34041. kBytes
   one-center:       1026. kBytes
   wavefun   :     148992. kBytes
 
     INWAV:  cpu time   52.8898: real time   53.2233
 Broyden mixing: mesh for mixing (old mesh)
   NGX = 57   NGY = 57   NGZ = 57
  (NGX  =240   NGY  =240   NGZ  =240)
  gives a total of 185193 points

 charge density for first step will be calculated from the start-wavefunctions


--------------------------------------------------------------------------------------------------------


 Maximum index for non-local projection operator          968
 Maximum index for augmentation-charges         3289 (set IRDMAX)


--------------------------------------------------------------------------------------------------------


 initial charge from wavefunction
 First call to EWALD:  gamma=   0.115
 Maximum number of real-space cells 3x 3x 3
 Maximum number of reciprocal cells 3x 3x 3

    FEWALD:  cpu time    0.0285: real time    0.0303


--------------------------------------- Iteration      1(   1)  ---------------------------------------


    POTLOK:  cpu time    0.3257: real time    0.3471
    SETDIJ:  cpu time    1.3591: real time    1.3824
     EDDAV:  cpu time  131.8862: real time  132.5758
       DOS:  cpu time    0.0029: real time    0.0029
    CHARGE:  cpu time    5.2805: real time    5.2845
    MIXING:  cpu time    0.0097: real time    0.0099
    --------------------------------------------
      LOOP:  cpu time  138.8642: real time  139.6027

 eigenvalue-minimisations  : 23328
 total energy-change (2. order) :-0.1859328E+04  (-0.3593576E+03)
 number of electron    1923.0000025 magnetization       1.0000000
 augmentation part      504.7221106 magnetization       0.6753796

 Broyden mixing:
  rms(total) = 0.90340E+01    rms(broyden)= 0.90314E+01
  rms(prec ) = 0.13609E+02
  weight for this iteration     100.00

 Free energy of the ion-electron system (eV)
  ---------------------------------------------------
  alpha Z        PSCENC =      6118.73324990
  Ewald energy   TEWEN  =   -103801.95733469
  -Hartree energ DENC   =    -64829.19741293
  -exchange      EXHF   =         0.00000000
  -V(xc)+E(xc)   XCENC  =      8955.82990251
  PAW double counting   =    197112.78470426  -198106.29294191
  entropy T*S    EENTRO =        -0.00624933
  eigenvalues    EBANDS =    -25886.47397422
  atomic energy  EATOM  =    178577.25249613
  Solvation  Ediel_sol  =         0.00000000
  ---------------------------------------------------
  free energy    TOTEN  =     -1859.32756027 eV

  energy without entropy =    -1859.32131094  energy(sigma->0) =    -1859.32443560


--------------------------------------------------------------------------------------------------------




--------------------------------------- Iteration      1(   2)  ---------------------------------------


    POTLOK:  cpu time    0.2645: real time    0.2666
    SETDIJ:  cpu time    1.4169: real time    1.4194
     EDDAV:  cpu time  148.9276: real time  149.7450
       DOS:  cpu time    0.0029: real time    0.0029
    CHARGE:  cpu time    5.2187: real time    5.2225
    MIXING:  cpu time    0.0070: real time    0.0071
    --------------------------------------------
      LOOP:  cpu time  155.8377: real time  156.6635

 eigenvalue-minimisations  : 27144
 total energy-change (2. order) :-0.5695371E+02  (-0.4087779E+03)
 number of electron    1923.0000025 magnetization       1.0000000
 augmentation part      506.6211322 magnetization       0.9330325

 Broyden mixing:
  rms(total) = 0.10840E+02    rms(broyden)= 0.10836E+02
  rms(prec ) = 0.16202E+02
  weight for this iteration     100.00

 eigenvalues of (default mixing * dielectric matrix)
  average eigenvalue GAMMA=   0.4297
  0.4297

 Free energy of the ion-electron system (eV)
  ---------------------------------------------------
  alpha Z        PSCENC =      6118.73324990
  Ewald energy   TEWEN  =   -103801.95733469
  -Hartree energ DENC   =    -64933.88328799
  -exchange      EXHF   =         0.00000000
  -V(xc)+E(xc)   XCENC  =      8955.75382348
  PAW double counting   =    199036.12838450  -200000.86671547
  entropy T*S    EENTRO =        -0.00303590
  eigenvalues    EBANDS =    -25867.43884800
  atomic energy  EATOM  =    178577.25249613
  Solvation  Ediel_sol  =         0.00000000
  ---------------------------------------------------
  free energy    TOTEN  =     -1916.28126804 eV

  energy without entropy =    -1916.27823214  energy(sigma->0) =    -1916.27975009


--------------------------------------------------------------------------------------------------------




--------------------------------------- Iteration      1(   3)  ---------------------------------------


    POTLOK:  cpu time    0.2600: real time    0.2630
    SETDIJ:  cpu time    1.4313: real time    1.4318
     EDDAV:  cpu time  151.4793: real time  152.2838
       DOS:  cpu time    0.0017: real time    0.0017
    CHARGE:  cpu time    5.1988: real time    5.2026
    MIXING:  cpu time    0.0077: real time    0.0077
    --------------------------------------------
      LOOP:  cpu time  158.3788: real time  159.1907

 eigenvalue-minimisations  : 27900
 total energy-change (2. order) : 0.5242347E+02  (-0.1361585E+03)
 number of electron    1923.0000025 magnetization       1.0000000
 augmentation part      492.5220568 magnetization       0.5604327

 Broyden mixing:
  rms(total) = 0.56849E+01    rms(broyden)= 0.56826E+01
  rms(prec ) = 0.65599E+01
  weight for this iteration     100.00

 eigenvalues of (default mixing * dielectric matrix)
  average eigenvalue GAMMA=   0.4602
  0.4602  0.4602

 Free energy of the ion-electron system (eV)
  ---------------------------------------------------
  alpha Z        PSCENC =      6118.73324990
  Ewald energy   TEWEN  =   -103801.95733469
  -Hartree energ DENC   =    -64999.92520851
  -exchange      EXHF   =         0.00000000
  -V(xc)+E(xc)   XCENC  =      8957.24919462
  PAW double counting   =    199153.14914736  -200110.25849676
  entropy T*S    EENTRO =        -0.00000000
  eigenvalues    EBANDS =    -25758.10084521
  atomic energy  EATOM  =    178577.25249613
  Solvation  Ediel_sol  =         0.00000000
  ---------------------------------------------------
  free energy    TOTEN  =     -1863.85779715 eV

  energy without entropy =    -1863.85779715  energy(sigma->0) =    -1863.85779715


--------------------------------------------------------------------------------------------------------




--------------------------------------- Iteration      1(   4)  ---------------------------------------


    POTLOK:  cpu time    0.2605: real time    0.2627
    SETDIJ:  cpu time    1.3789: real time    1.3801
     EDDAV:  cpu time  142.5063: real time  143.5356
       DOS:  cpu time    0.0017: real time    0.0017
    CHARGE:  cpu time    5.2270: real time    5.2327
    MIXING:  cpu time    0.0072: real time    0.0075
    --------------------------------------------
      LOOP:  cpu time  149.3817: real time  150.4203

 eigenvalue-minimisations  : 25884
 total energy-change (2. order) : 0.4633988E+02  (-0.3226207E+02)
 number of electron    1923.0000025 magnetization       1.0000000
 augmentation part      493.7032715 magnetization       0.5638367

 Broyden mixing:
  rms(total) = 0.42341E+01    rms(broyden)= 0.42333E+01
  rms(prec ) = 0.49433E+01
  weight for this iteration     100.00

 eigenvalues of (default mixing * dielectric matrix)
  average eigenvalue GAMMA=   0.5971
  0.6676  0.6676  0.4561

 Free energy of the ion-electron system (eV)
  ---------------------------------------------------
  alpha Z        PSCENC =      6118.73324990
  Ewald energy   TEWEN  =   -103801.95733469
  -Hartree energ DENC   =    -64964.96005017
  -exchange      EXHF   =         0.00000000
  -V(xc)+E(xc)   XCENC  =      8963.36925005
  PAW double counting   =    199240.70672343  -200214.32795768
  entropy T*S    EENTRO =        -0.00000000
  eigenvalues    EBANDS =    -25736.33429877
  atomic energy  EATOM  =    178577.25249613
  Solvation  Ediel_sol  =         0.00000000
  ---------------------------------------------------
  free energy    TOTEN  =     -1817.51792179 eV

  energy without entropy =    -1817.51792179  energy(sigma->0) =    -1817.51792179


--------------------------------------------------------------------------------------------------------




--------------------------------------- Iteration      1(   5)  ---------------------------------------


    POTLOK:  cpu time    0.2619: real time    0.2627
    SETDIJ:  cpu time    1.3930: real time    1.3940
     EDDAV:  cpu time  149.0944: real time  150.3519
       DOS:  cpu time    0.0018: real time    0.0018
    CHARGE:  cpu time    5.2104: real time    5.2163
    MIXING:  cpu time    0.0079: real time    0.0079
    --------------------------------------------
      LOOP:  cpu time  155.9693: real time  157.2347

 eigenvalue-minimisations  : 27144
 total energy-change (2. order) : 0.4068058E+02  (-0.9825103E+01)
 number of electron    1923.0000025 magnetization       1.0000000
 augmentation part      493.9110234 magnetization       0.6105619

 Broyden mixing:
  rms(total) = 0.23921E+01    rms(broyden)= 0.23916E+01
  rms(prec ) = 0.28179E+01
  weight for this iteration     100.00

 eigenvalues of (default mixing * dielectric matrix)
  average eigenvalue GAMMA=   0.6998
  0.8985  0.8985  0.5011  0.5011

 Free energy of the ion-electron system (eV)
  ---------------------------------------------------
  alpha Z        PSCENC =      6118.73324990
  Ewald energy   TEWEN  =   -103801.95733469
  -Hartree energ DENC   =    -64981.23217513
  -exchange      EXHF   =         0.00000000
  -V(xc)+E(xc)   XCENC  =      8969.92870424
  PAW double counting   =    198742.07088752  -199733.64930587
  entropy T*S    EENTRO =        -0.00000000
  eigenvalues    EBANDS =    -25667.98385900
  atomic energy  EATOM  =    178577.25249613
  Solvation  Ediel_sol  =         0.00000000
  ---------------------------------------------------
  free energy    TOTEN  =     -1776.83733690 eV

  energy without entropy =    -1776.83733690  energy(sigma->0) =    -1776.83733690


--------------------------------------------------------------------------------------------------------




--------------------------------------- Iteration      1(   6)  ---------------------------------------


    POTLOK:  cpu time    0.2627: real time    0.2630
    SETDIJ:  cpu time    1.3923: real time    1.3929
     EDDAV:  cpu time  146.5366: real time  147.1161
       DOS:  cpu time    0.0018: real time    0.0018
    CHARGE:  cpu time    5.1361: real time    5.2344
    MIXING:  cpu time    0.0137: real time    0.0138
    --------------------------------------------
      LOOP:  cpu time  153.3434: real time  154.0220

 eigenvalue-minimisations  : 26736
 total energy-change (2. order) : 0.1515199E+02  (-0.5592963E+01)
 number of electron    1923.0000025 magnetization       1.0000000
 augmentation part      495.0740376 magnetization       0.5861897

 Broyden mixing:
  rms(total) = 0.15092E+01    rms(broyden)= 0.15089E+01
  rms(prec ) = 0.16572E+01
  weight for this iteration     100.00

 eigenvalues of (default mixing * dielectric matrix)
  average eigenvalue GAMMA=   0.7403
  1.0167  1.0167  0.4524  0.6079  0.6079

 Free energy of the ion-electron system (eV)
  ---------------------------------------------------
  alpha Z        PSCENC =      6118.73324990
  Ewald energy   TEWEN  =   -103801.95733469
  -Hartree energ DENC   =    -64908.34967667
  -exchange      EXHF   =         0.00000000
  -V(xc)+E(xc)   XCENC  =      8969.34206363
  PAW double counting   =    198259.82514472  -199259.69403914
  entropy T*S    EENTRO =        -0.00000000
  eigenvalues    EBANDS =    -25716.83724842
  atomic energy  EATOM  =    178577.25249613
  Solvation  Ediel_sol  =         0.00000000
  ---------------------------------------------------
  free energy    TOTEN  =     -1761.68534453 eV

  energy without entropy =    -1761.68534453  energy(sigma->0) =    -1761.68534453


--------------------------------------------------------------------------------------------------------




--------------------------------------- Iteration      1(   7)  ---------------------------------------


    POTLOK:  cpu time    0.3006: real time    0.3043
    SETDIJ:  cpu time    1.3802: real time    1.3971
     EDDAV:  cpu time  147.0288: real time  148.0133
       DOS:  cpu time    0.0018: real time    0.0018
    CHARGE:  cpu time    5.2291: real time    5.2333
    MIXING:  cpu time    0.0084: real time    0.0084
    --------------------------------------------
      LOOP:  cpu time  153.9489: real time  154.9583

 eigenvalue-minimisations  : 26772
 total energy-change (2. order) : 0.1631264E+01  (-0.1012574E+01)
 number of electron    1923.0000025 magnetization       1.0000000
 augmentation part      495.9670463 magnetization       0.5805326

 Broyden mixing:
  rms(total) = 0.10647E+01    rms(broyden)= 0.10640E+01
  rms(prec ) = 0.11717E+01
  weight for this iteration     100.00

 eigenvalues of (default mixing * dielectric matrix)
  average eigenvalue GAMMA=   0.9116
  1.4714  1.4714  0.7402  0.7402  0.5233  0.5233

 Free energy of the ion-electron system (eV)
  ---------------------------------------------------
  alpha Z        PSCENC =      6118.73324990
  Ewald energy   TEWEN  =   -103801.95733469
  -Hartree energ DENC   =    -64870.28960993
  -exchange      EXHF   =         0.00000000
  -V(xc)+E(xc)   XCENC  =      8967.82620027
  PAW double counting   =    197973.78365693  -198974.62293642
  entropy T*S    EENTRO =        -0.00000000
  eigenvalues    EBANDS =    -25750.77980254
  atomic energy  EATOM  =    178577.25249613
  Solvation  Ediel_sol  =         0.00000000
  ---------------------------------------------------
  free energy    TOTEN  =     -1760.05408034 eV

  energy without entropy =    -1760.05408034  energy(sigma->0) =    -1760.05408034


--------------------------------------------------------------------------------------------------------




--------------------------------------- Iteration      1(   8)  ---------------------------------------


    POTLOK:  cpu time    0.2600: real time    0.2624
    SETDIJ:  cpu time    1.3796: real time    1.3805
     EDDAV:  cpu time  146.2903: real time  147.1441
       DOS:  cpu time    0.0019: real time    0.0019
    CHARGE:  cpu time    5.2169: real time    5.2200
    MIXING:  cpu time    0.0202: real time    0.0202
    --------------------------------------------
      LOOP:  cpu time  153.1690: real time  154.0292

 eigenvalue-minimisations  : 26712
[...]
   81        1.574   3.461   0.000   5.034
   82        1.575   3.460   0.000   5.034
   83        1.574   3.460   0.000   5.034
   84        1.576   3.469   0.000   5.045
   85        1.575   3.462   0.000   5.037
   86        1.575   3.465   0.000   5.040
   87        1.576   3.464   0.000   5.039
   88        1.575   3.466   0.000   5.041
   89        1.575   3.460   0.000   5.035
   90        1.575   3.456   0.000   5.031
   91        1.575   3.460   0.000   5.034
   92        1.574   3.459   0.000   5.034
   93        1.577   3.463   0.000   5.041
   94        1.577   3.469   0.000   5.046
   95        1.576   3.469   0.000   5.045
   96        1.575   3.460   0.000   5.035
   97        1.575   3.465   0.000   5.040
   98        1.576   3.469   0.000   5.045
   99        1.575   3.459   0.000   5.034
  100        1.576   3.457   0.000   5.033
  101        1.574   3.456   0.000   5.031
  102        1.576   3.461   0.000   5.037
  103        1.575   3.457   0.000   5.033
  104        1.570   3.471   0.000   5.041
  105        1.577   3.468   0.000   5.044
  106        1.575   3.462   0.000   5.036
  107        1.575   3.461   0.000   5.035
  108        1.569   3.488   0.000   5.057
  109        1.575   3.461   0.000   5.035
  110        1.575   3.458   0.000   5.033
  111        1.575   3.467   0.000   5.042
  112        1.577   3.456   0.000   5.033
  113        1.576   3.469   0.000   5.045
  114        1.577   3.469   0.000   5.046
  115        1.574   3.459   0.000   5.034
  116        1.575   3.458   0.000   5.033
  117        1.575   3.457   0.000   5.032
  118        1.575   3.458   0.000   5.034
  119        1.576   3.468   0.000   5.044
  120        1.575   3.456   0.000   5.031
  121        1.574   3.459   0.000   5.033
  122        1.577   3.464   0.000   5.041
  123        1.577   3.471   0.000   5.048
  124        1.576   3.467   0.000   5.043
  125        1.576   3.471   0.000   5.047
  126        1.576   3.469   0.000   5.045
  127        1.575   3.456   0.000   5.031
  128        1.575   3.458   0.000   5.033
  129        1.577   3.468   0.000   5.045
  130        1.737   4.367   0.000   6.103
  131        1.736   4.367   0.000   6.103
  132        1.738   4.377   0.000   6.115
  133        1.738   4.383   0.000   6.121
  134        1.738   4.382   0.000   6.120
  135        1.737   4.366   0.000   6.102
  136        1.736   4.365   0.000   6.101
  137        1.738   4.380   0.000   6.117
  138        1.738   4.379   0.000   6.117
  139        1.739   4.381   0.000   6.120
  140        1.739   4.383   0.000   6.121
  141        1.738   4.375   0.000   6.113
  142        1.737   4.377   0.000   6.115
  143        1.738   4.381   0.000   6.119
  144        1.738   4.383   0.000   6.121
  145        1.738   4.379   0.000   6.117
  146        1.737   4.377   0.000   6.114
  147        1.736   4.365   0.000   6.102
  148        1.736   4.365   0.000   6.101
  149        1.739   4.380   0.000   6.119
  150        1.738   4.384   0.000   6.123
  151        1.738   4.373   0.000   6.111
  152        1.737   4.377   0.000   6.114
  153        1.737   4.380   0.000   6.117
  154        1.737   4.371   0.000   6.107
  155        1.737   4.370   0.000   6.107
  156        1.736   4.368   0.000   6.105
  157        1.737   4.366   0.000   6.103
  158        1.738   4.375   0.000   6.113
  159        1.738   4.375   0.000   6.113
  160        1.737   4.381   0.000   6.117
  161        1.737   4.373   0.000   6.110
  162        1.736   4.368   0.000   6.105
  163        1.736   4.367   0.000   6.103
  164        1.737   4.378   0.000   6.115
  165        1.737   4.370   0.000   6.107
  166        1.736   4.368   0.000   6.104
  167        1.736   4.368   0.000   6.104
  168        1.736   4.368   0.000   6.104
  169        1.738   4.374   0.000   6.112
  170        1.738   4.377   0.000   6.115
  171        1.737   4.367   0.000   6.104
  172        1.738   4.385   0.000   6.122
  173        1.737   4.371   0.000   6.108
  174        1.737   4.366   0.000   6.103
  175        1.739   4.377   0.000   6.115
  176        1.736   4.373   0.000   6.109
  177        1.737   4.374   0.000   6.112
  178        1.737   4.366   0.000   6.103
  179        1.738   4.374   0.000   6.112
  180        1.738   4.373   0.000   6.111
  181        1.736   4.367   0.000   6.103
  182        1.737   4.375   0.000   6.112
  183        1.737   4.365   0.000   6.101
  184        1.737   4.376   0.000   6.114
  185        1.737   4.380   0.000   6.117
  186        1.737   4.377   0.000   6.114
  187        1.736   4.366   0.000   6.102
  188        1.738   4.374   0.000   6.112
  189        1.738   4.375   0.000   6.113
  190        1.738   4.375   0.000   6.113
  191        1.739   4.381   0.000   6.119
  192        1.737   4.367   0.000   6.103
  193        1.738   4.383   0.000   6.122
  194        1.736   4.365   0.000   6.101
  195        1.737   4.367   0.000   6.104
  196        1.737   4.379   0.000   6.116
  197        1.737   4.367   0.000   6.103
  198        1.737   4.379   0.000   6.115
  199        1.738   4.375   0.000   6.113
  200        1.738   4.377   0.000   6.115
  201        1.738   4.376   0.000   6.114
  202        1.738   4.372   0.000   6.110
  203        1.738   4.378   0.000   6.116
  204        1.737   4.370   0.000   6.107
  205        1.737   4.374   0.000   6.111
  206        1.736   4.364   0.000   6.100
  207        1.737   4.367   0.000   6.104
  208        1.737   4.379   0.000   6.115
  209        1.737   4.374   0.000   6.111
  210        1.736   4.366   0.000   6.102
  211        1.737   4.370   0.000   6.107
  212        1.736   4.364   0.000   6.100
  213        1.738   4.370   0.000   6.108
  214        1.736   4.363   0.000   6.099
  215        1.738   4.373   0.000   6.111
  216        1.736   4.364   0.000   6.100
  217        1.736   4.363   0.000   6.100
  218        1.736   4.373   0.000   6.109
  219        1.738   4.375   0.000   6.112
  220        1.738   4.375   0.000   6.113
  221        1.738   4.371   0.000   6.110
  222        1.737   4.377   0.000   6.114
  223        1.737   4.374   0.000   6.111
  224        1.738   4.373   0.000   6.111
  225        1.737   4.372   0.000   6.110
  226        1.738   4.371   0.000   6.109
  227        1.737   4.377   0.000   6.114
  228        1.737   4.371   0.000   6.108
  229        1.737   4.374   0.000   6.112
  230        1.736   4.364   0.000   6.101
  231        1.738   4.373   0.000   6.111
  232        1.736   4.365   0.000   6.101
  233        1.738   4.380   0.000   6.118
  234        1.736   4.365   0.000   6.101
  235        1.736   4.365   0.000   6.101
  236        1.738   4.387   0.000   6.125
  237        1.739   4.383   0.000   6.122
  238        1.738   4.377   0.000   6.114
  239        1.738   4.376   0.000   6.114
  240        1.737   4.377   0.000   6.114
  241        1.738   4.375   0.000   6.113
  242        1.739   4.384   0.000   6.123
  243        1.738   4.386   0.000   6.124
  244        1.738   4.375   0.000   6.113
  245        1.738   4.376   0.000   6.114
  246        1.738   4.376   0.000   6.114
  247        1.738   4.384   0.000   6.122
  248        1.737   4.376   0.000   6.113
  249        1.738   4.384   0.000   6.123
  250        1.738   4.373   0.000   6.110
  251        1.738   4.375   0.000   6.113
  252        1.737   4.380   0.000   6.117
  253        1.738   4.376   0.000   6.114
  254        1.739   4.385   0.000   6.123
  255        1.738   4.373   0.000   6.111
  256        1.738   4.386   0.000   6.125
  257        1.738   4.376   0.000   6.113
--------------------------------------------------
tot        345.3301194.466 111.9141651.710
 


 magnetization (x)
 
# of ion       s       p       d       tot
------------------------------------------
    1       -0.000  -0.000   0.000  -0.000
    2        0.000  -0.000  -0.000  -0.000
    3        0.000   0.000   0.000   0.000
    4       -0.000  -0.000   0.000  -0.000
    5        0.000   0.001   0.056   0.056
    6       -0.000  -0.000  -0.000  -0.000
    7        0.000   0.000   0.001   0.001
    8       -0.000  -0.000   0.000   0.000
    9        0.000  -0.000   0.006   0.006
   10       -0.000  -0.000  -0.000  -0.000
   11        0.000  -0.000   0.000   0.000
   12       -0.000  -0.000  -0.000  -0.000
   13       -0.000  -0.000  -0.000  -0.000
   14       -0.000  -0.000  -0.000  -0.000
   15       -0.000  -0.000  -0.000  -0.000
   16       -0.000  -0.000   0.000   0.000
   17       -0.000  -0.000   0.000   0.000
   18       -0.000  -0.000   0.000   0.000
   19        0.000   0.000   0.003   0.003
   20       -0.000  -0.000   0.000   0.000
   21        0.000   0.000   0.001   0.001
   22       -0.000  -0.000   0.000   0.000
   23        0.000   0.000   0.004   0.004
   24       -0.000  -0.000  -0.000  -0.000
   25        0.000   0.000   0.002   0.002
   26       -0.000  -0.000  -0.000  -0.000
   27       -0.000  -0.000   0.000   0.000
   28       -0.000  -0.000   0.000   0.000
   29       -0.000  -0.000  -0.000  -0.000
   30       -0.000  -0.000   0.000   0.000
   31       -0.000  -0.000   0.000  -0.000
   32       -0.000  -0.000  -0.000  -0.000
   33       -0.000  -0.000  -0.000  -0.000
   34        0.000  -0.000   0.000   0.000
   35        0.000   0.000   0.000   0.000
   36       -0.000  -0.000  -0.000  -0.000
   37       -0.000  -0.000   0.001   0.001
   38       -0.000  -0.000  -0.000  -0.000
   39        0.000   0.000   0.001   0.001
   40       -0.000  -0.000  -0.000  -0.000
   41        0.005   0.007   0.891   0.903
   42        0.000  -0.000   0.000   0.000
   43       -0.000  -0.000  -0.000  -0.000
   44       -0.000  -0.000  -0.000  -0.000
   45       -0.000  -0.000  -0.000  -0.000
   46       -0.000  -0.000  -0.000  -0.000
   47        0.000  -0.000   0.000   0.000
   48       -0.000  -0.000  -0.000  -0.000
   49       -0.000  -0.000  -0.002  -0.003
   50       -0.000  -0.000   0.000   0.000
   51        0.000   0.000   0.000   0.000
   52       -0.000  -0.000   0.000   0.000
   53        0.000   0.000   0.000   0.000
   54       -0.000  -0.000   0.000  -0.000
   55        0.000   0.000   0.008   0.008
   56       -0.000  -0.000  -0.000  -0.000
   57       -0.000  -0.000   0.008   0.008
   58       -0.000  -0.000   0.000   0.000
   59       -0.000  -0.000  -0.000  -0.000
   60       -0.000  -0.000  -0.000  -0.000
   61        0.000  -0.000   0.000   0.000
   62       -0.000  -0.000   0.000   0.000
   63       -0.000  -0.000   0.000   0.000
   64       -0.000  -0.000   0.000  -0.000
   65        0.000   0.000   0.000   0.000
   66       -0.000  -0.001   0.000  -0.001
   67       -0.000  -0.000   0.000  -0.000
   68       -0.000  -0.000   0.000  -0.000
   69       -0.000  -0.000   0.000  -0.000
   70       -0.000  -0.000   0.000  -0.000
   71       -0.000  -0.000   0.000  -0.000
   72       -0.000  -0.000   0.000  -0.000
   73       -0.000  -0.000   0.000  -0.000
   74       -0.000  -0.000   0.000  -0.000
   75       -0.000  -0.000   0.000  -0.000
   76       -0.000  -0.000   0.000  -0.000
   77       -0.000  -0.000   0.000  -0.000
   78       -0.000  -0.000   0.000  -0.000
   79       -0.001  -0.012   0.000  -0.013
   80       -0.000  -0.000   0.000  -0.000
   81        0.000  -0.000   0.000  -0.000
   82       -0.000  -0.000   0.000  -0.000
   83       -0.000  -0.000   0.000  -0.000
   84       -0.000  -0.000   0.000  -0.000
   85       -0.000  -0.000   0.000  -0.000
   86       -0.000  -0.000   0.000  -0.000
   87       -0.000  -0.000   0.000  -0.000
   88       -0.000  -0.000   0.000  -0.000
   89       -0.000  -0.000   0.000  -0.000
   90        0.000  -0.000   0.000  -0.000
   91       -0.000  -0.000   0.000  -0.000
   92       -0.000  -0.000   0.000  -0.000
   93       -0.000  -0.001   0.000  -0.001
   94        0.000   0.000   0.000   0.000
   95       -0.000  -0.001   0.000  -0.001
   96       -0.000  -0.000   0.000  -0.000
   97       -0.000  -0.000   0.000  -0.000
   98       -0.000  -0.000   0.000  -0.000
   99        0.000   0.000   0.000   0.000
  100       -0.000  -0.000   0.000  -0.000
  101       -0.000   0.000   0.000   0.000
  102       -0.000  -0.001   0.000  -0.001
  103       -0.000   0.000   0.000   0.000
  104       -0.001  -0.025   0.000  -0.026
  105       -0.000  -0.000   0.000  -0.000
  106       -0.000  -0.000   0.000  -0.000
  107       -0.000  -0.000   0.000  -0.000
  108        0.000  -0.000   0.000  -0.000
  109        0.000  -0.000   0.000  -0.000
  110       -0.000  -0.000   0.000  -0.000
  111       -0.000  -0.000   0.000  -0.000
  112       -0.000  -0.000   0.000  -0.000
  113       -0.000  -0.000   0.000  -0.000
  114       -0.000  -0.000   0.000  -0.000
  115       -0.000  -0.000   0.000  -0.000
  116       -0.000  -0.000   0.000  -0.000
  117       -0.000  -0.000   0.000  -0.000
  118        0.000  -0.000   0.000  -0.000
  119       -0.000  -0.000   0.000  -0.000
  120        0.000  -0.000   0.000  -0.000
  121        0.000   0.000   0.000   0.000
  122       -0.000  -0.000   0.000  -0.000
  123       -0.000  -0.000   0.000  -0.000
  124       -0.000  -0.001   0.000  -0.001
  125        0.000  -0.000   0.000  -0.000
  126       -0.000  -0.000   0.000  -0.000
  127       -0.000  -0.000   0.000  -0.000
  128       -0.000  -0.000   0.000  -0.000
  129        0.000   0.000   0.000   0.000
  130        0.000  -0.000   0.000  -0.000
  131       -0.000  -0.000   0.000  -0.000
  132       -0.000  -0.000   0.000  -0.000
  133        0.000  -0.000   0.000  -0.000
  134       -0.000  -0.000   0.000  -0.000
  135       -0.000  -0.000   0.000  -0.000
  136       -0.000  -0.000   0.000  -0.000
  137       -0.000  -0.000   0.000  -0.000
  138       -0.000  -0.000   0.000  -0.000
  139       -0.000  -0.000   0.000  -0.000
  140        0.000  -0.000   0.000  -0.000
  141       -0.000  -0.000   0.000  -0.000
  142       -0.000  -0.000   0.000  -0.000
  143       -0.000  -0.000   0.000  -0.000
  144       -0.000  -0.000   0.000  -0.000
  145       -0.000  -0.000   0.000  -0.000
  146       -0.000  -0.000   0.000  -0.000
  147       -0.000  -0.000   0.000  -0.000
  148       -0.000  -0.000   0.000  -0.000
  149       -0.000  -0.000   0.000  -0.000
  150       -0.000  -0.000   0.000  -0.000
  151       -0.000  -0.000   0.000  -0.000
  152       -0.000  -0.000   0.000  -0.000
  153       -0.000  -0.000   0.000  -0.000
  154        0.000  -0.000   0.000  -0.000
  155       -0.000  -0.000   0.000  -0.000
  156       -0.000  -0.000   0.000  -0.000
  157        0.000  -0.000   0.000  -0.000
  158       -0.000  -0.000   0.000  -0.000
  159       -0.000  -0.000   0.000  -0.000
  160       -0.000  -0.007   0.000  -0.007
  161       -0.000  -0.000   0.000  -0.000
  162       -0.000   0.000   0.000   0.000
  163       -0.000  -0.000   0.000  -0.000
  164       -0.000  -0.000   0.000  -0.000
  165       -0.000  -0.000   0.000  -0.000
  166       -0.000  -0.000   0.000  -0.000
  167       -0.000  -0.000   0.000  -0.000
  168        0.000  -0.000   0.000  -0.000
  169       -0.000  -0.000   0.000  -0.000
  170       -0.000  -0.000   0.000  -0.000
  171       -0.000   0.000   0.000   0.000
  172        0.000  -0.000   0.000  -0.000
  173       -0.000  -0.000   0.000  -0.000
  174        0.000   0.000   0.000   0.000
  175       -0.000  -0.000   0.000  -0.000
  176       -0.000   0.002   0.000   0.001
  177       -0.000  -0.000   0.000  -0.000
  178       -0.000  -0.000   0.000  -0.000
  179       -0.000  -0.000   0.000  -0.000
  180       -0.000  -0.000   0.000  -0.000
  181       -0.000  -0.000   0.000  -0.000
  182       -0.000  -0.000   0.000  -0.000
  183        0.000  -0.000   0.000  -0.000
  184        0.000  -0.000   0.000  -0.000
  185        0.000  -0.000   0.000  -0.000
  186        0.000   0.000   0.000   0.000
  187        0.000  -0.000   0.000   0.000
  188       -0.000  -0.000   0.000  -0.000
  189       -0.000  -0.000   0.000  -0.000
  190       -0.000  -0.000   0.000  -0.000
  191       -0.000  -0.000   0.000  -0.000
  192        0.000  -0.000   0.000  -0.000
  193       -0.000  -0.000   0.000  -0.000
  194        0.000  -0.000   0.000  -0.000
  195        0.000  -0.000   0.000  -0.000
  196       -0.000  -0.000   0.000  -0.000
  197       -0.000  -0.000   0.000  -0.000
  198       -0.000  -0.000   0.000  -0.000
  199        0.000  -0.000   0.000  -0.000
  200        0.000   0.000   0.000   0.000
  201       -0.000  -0.000   0.000  -0.000
  202        0.000  -0.000   0.000  -0.000
  203        0.000  -0.000   0.000  -0.000
  204        0.000  -0.000   0.000  -0.000
  205        0.000  -0.000   0.000  -0.000
  206       -0.000  -0.000   0.000  -0.000
  207       -0.000  -0.000   0.000  -0.000
  208       -0.000  -0.000   0.000  -0.000
  209       -0.000  -0.000   0.000  -0.000
  210       -0.000  -0.000   0.000  -0.000
  211       -0.000  -0.000   0.000  -0.000
  212        0.000  -0.000   0.000   0.000
  213       -0.000  -0.000   0.000  -0.000
  214       -0.000  -0.000   0.000  -0.000
  215       -0.000   0.000   0.000   0.000
  216        0.000   0.000   0.000   0.000
  217       -0.000  -0.000   0.000  -0.000
  218        0.000  -0.000   0.000  -0.000
  219       -0.000  -0.000   0.000  -0.000
  220       -0.000  -0.000   0.000  -0.000
  221       -0.000  -0.000   0.000  -0.000
  222       -0.000  -0.000   0.000  -0.000
  223       -0.000  -0.000   0.000  -0.000
  224        0.000  -0.000   0.000  -0.000
  225       -0.000   0.000   0.000   0.000
  226       -0.000  -0.000   0.000  -0.000
  227       -0.000  -0.000   0.000  -0.000
  228       -0.000  -0.000   0.000  -0.000
  229       -0.000  -0.000   0.000  -0.000
  230       -0.000  -0.000   0.000  -0.000
  231       -0.000  -0.000   0.000  -0.000
  232       -0.000  -0.000   0.000  -0.000
  233       -0.000   0.000   0.000   0.000
  234        0.000  -0.000   0.000  -0.000
  235        0.000  -0.000   0.000  -0.000
  236        0.000   0.000   0.000   0.000
  237        0.000  -0.000   0.000  -0.000
  238       -0.000   0.001   0.000   0.000
  239        0.000  -0.000   0.000   0.000
  240       -0.000  -0.000   0.000  -0.000
  241       -0.000  -0.000   0.000  -0.000
  242       -0.000  -0.000   0.000  -0.000
  243       -0.000  -0.000   0.000  -0.000
  244       -0.000  -0.000   0.000  -0.000
  245       -0.000   0.000   0.000   0.000
  246        0.000   0.000   0.000   0.000
  247        0.000  -0.000   0.000   0.000
  248       -0.000   0.001   0.000   0.000
  249        0.000  -0.000   0.000  -0.000
  250       -0.000  -0.000   0.000  -0.000
  251       -0.000  -0.000   0.000  -0.000
  252        0.000   0.000   0.000   0.000
  253       -0.000  -0.000   0.000  -0.000
  254       -0.000  -0.000   0.000  -0.000
  255        0.000  -0.000   0.000  -0.000
  256       -0.000  -0.000   0.000  -0.000
  257       -0.000  -0.000   0.000  -0.000
--------------------------------------------------
tot          0.002  -0.044   0.979   0.937
 

 total amount of memory used by VASP MPI-rank0   291499. kBytes
=======================================================================

   base      :      30000. kBytes
   nonlr-proj:      49464. kBytes
   fftplans  :      27976. kBytes
   grid      :      34041. kBytes
   one-center:       1026. kBytes
   wavefun   :     148992. kBytes
 
  
  
 General timing and accounting informations for this job:
 ========================================================
  
                  Total CPU time used (sec):     4664.229
                            User time (sec):     4271.741
                          System time (sec):      392.489
                         Elapsed time (sec):     4699.598
  
                   Maximum memory used (kb):      629384.
                   Average memory used (kb):           0.
  
                          Minor page faults:       485114
                          Major page faults:            7
                 Voluntary context switches:        32644
